 written on 19Jul2023 at 18:49:07 
           3
        1125
    4    2    2    2    2    2    2    2    2    2    2    2    4    2    4
    1    1    2    1    1    2    1    1    2    2    1    1    1    2    1
    1    1    2    1    1    2    2    1    1    2    1    1    2    1    1
    2    1    2    4    2    2    1    1    4    1    1    1    1    2    2
    1    1    1    1    1    2    1    1    1    1    1    2    1    1    1
    1    1    2    1    1    1    1    1    2    1    1    1    1    2    2
    1    1    1    1    2    1    1    1    1    2    1    1    1    2    2
    1    2    4    2    2    1    1    2    2    1    1    1    1    1    4
    1    1    1    1    1    1    1    2    1    1    1    1    1    1    1
    2    1    1    1    1    1    1    1    2    1    1    1    1    1    1
    1    2    1    1    1    1    1    1    1    2    1    1    1    1    1
    1    2    2    1    1    1    1    1    1    2    1    1    1    1    1
    2    2    1    1    1    2    2    1    2    4    2    2    2    1    1
    1    2    1    1    1    1    1    2    1    1    1    1    1    1    1
    4    1    1    1    1    1    1    1    1    1    2    1    1    1    1
    1    1    1    1    1    2    1    1    1    1    1    1    1    1    1
    2    1    1    1    1    1    1    1    1    1    2    1    1    1    1
    1    1    1    1    1    2    1    1    1    1    1    1    1    1    2
    2    1    1    1    1    1    1    1    2    2    1    1    1    1    1
    2    2    1    1    1    2    2    1    2    4    2    2    2    1    1
    1    2    1    1    1    1    1    2    1    1    1    1    1    1    1
    2    1    1    1    1    1    1    1    1    1    1    1    1    1    1
    1    1    1    1    1    1    1    1    1    1    1    1    1    1    1
    1    1    1    1    1    1    1    1    1    1    1    1    1    1    1
    1    1    1    1    1    2    1    1    1    1    1    1    1    1    1
    2    2    1    1    1    1    1    1    1    1    2    1    1    1    1
    1    1    2    1    1    1    1    2    1    1    2    2    2    2    1
    1    2    2    1    1    1    1    1    2    1    1    1    1    1    1
    1    2    1    1    1    1    1    1    1    1    1    1    1    1    1
    1    1    1    1    1    1    1    1    1    1    1    1    1    1    1
    1    1    1    1    1    1    1    1    1    1    1    2    1    1    1
    1    1    1    1    1    1    2    1    1    1    1    1    1    1    1
    1    1    1    1    1    1    1    1    1    1    1    2    2    1    1
    1    1    1    1    2    1    1    1    1    2    1    1    2    2    2
    2    1    1    2    1    1    1    1    2    2    1    1    1    1    1
    1    1    2    1    1    1    1    1    1    1    1    1    1    1    1
    1    1    1    1    1    1    1    1    1    1    1    1    1    1    1
    1    1    2    1    1    1    1    1    1    1    1    1    2    1    1
    1    1    1    1    1    1    1    1    1    1    1    1    1    1    1
    1    1    1    1    1    1    1    1    1    1    1    1    2    1    1
    1    1    1    1    1    2    2    1    1    1    1    2    1    1    2
    2    2    2    1    1    2    1    1    1    1    2    1    1    1    1
    1    1    2    2    1    1    1    1    1    1    1    1    1    1    1
    1    1    1    1    1    1    1    1    2    1    1    1    1    1    1
    1    1    1    2    1    1    1    1    1    1    1    1    1    1    1
    1    1    1    1    1    1    1    1    1    1    1    1    1    1    1
    1    1    1    1    1    1    1    1    1    1    1    1    1    2    1
    1    1    1    1    1    1    2    1    1    1    1    1    2    2    1
    1    2    2    2    2    1    1    2    1    1    1    1    2    1    1
    1    1    1    1    2    1    1    1    1    1    1    1    1    2    2
    1    1    1    1    1    1    1    1    1    2    1    1    1    1    1
    1    1    1    1    1    1    1    1    1    1    1    1    1    1    1
    1    1    1    1    1    1    1    1    1    1    1    1    1    1    1
    1    1    1    1    1    1    1    1    1    1    1    1    1    1    2
    1    1    1    1    1    1    1    2    1    1    1    1    1    2    1
    1    1    2    2    2    4    2    1    2    2    1    1    1    2    2
    1    1    1    1    1    2    2    1    1    1    1    1    1    1    2
    2    1    1    1    1    1    1    1    1    2    1    1    1    1    1
    1    1    1    1    2    1    1    1    1    1    1    1    1    1    2
    1    1    1    1    1    1    1    1    1    2    1    1    1    1    1
    1    1    1    1    2    1    1    1    1    1    1    1    1    1    4
    1    1    1    1    1    1    1    2    1    1    1    1    1    2    1
    1    1    2    2    2    4    2    1    2    2    1    1    1    2    2
    1    1    1    1    1    2    1    1    1    1    1    1    2    2    1
    1    1    1    1    1    2    1    1    1    1    1    1    1    2    1
    1    1    1    1    1    1    2    1    1    1    1    1    1    1    2
    1    1    1    1    1    1    1    2    1    1    1    1    1    1    1
    4    1    1    1    1    1    2    2    1    1    2    2    4    2    1
    2    2    1    1    1    2    1    1    1    1    2    1    1    1    1
    2    2    1    1    1    1    2    1    1    1    1    1    2    1    1
    1    1    1    2    1    1    1    1    1    2    1    1    1    1    1
    2    2    1    1    1    1    4    1    1    2    2    4    2    1    2
    1    1    2    1    1    2    1    1    2    2    1    1    2    1    1
    1    2    1    1    1    2    2    1    1    2    1    1    2    1    1
    4    2    4    2    2    2    2    2    2    2    2    2    2    2    4
   -7   -7  -10    1    1    0.000000    0.000000
   -7   -7  -10    2    1   -0.000000    0.000000
   -7   -7  -10    3    1    0.000000   -0.000000
   -7   -7  -10    1    2   -0.000000   -0.000000
   -7   -7  -10    2    2    0.000000    0.000000
   -7   -7  -10    3    2    0.000000   -0.000000
   -7   -7  -10    1    3    0.000000    0.000000
   -7   -7  -10    2    3    0.000000   -0.000000
   -7   -7  -10    3    3   -0.000000   -0.000000
   -7   -6   -9    1    1   -0.000001    0.000000
   -7   -6   -9    2    1   -0.000000    0.000000
   -7   -6   -9    3    1   -0.000000    0.000000
   -7   -6   -9    1    2    0.000000   -0.000000
   -7   -6   -9    2    2   -0.000001   -0.000000
   -7   -6   -9    3    2    0.000001   -0.000000
   -7   -6   -9    1    3   -0.000000    0.000000
   -7   -6   -9    2    3    0.000001   -0.000000
   -7   -6   -9    3    3    0.000000   -0.000000
   -7   -5   -8    1    1   -0.000000   -0.000000
   -7   -5   -8    2    1   -0.000000   -0.000000
   -7   -5   -8    3    1   -0.000000   -0.000000
   -7   -5   -8    1    2    0.000000   -0.000000
   -7   -5   -8    2    2   -0.000001    0.000000
   -7   -5   -8    3    2    0.000000    0.000000
   -7   -5   -8    1    3   -0.000000    0.000000
   -7   -5   -8    2    3    0.000000    0.000000
   -7   -5   -8    3    3    0.000001    0.000000
   -7   -4   -7    1    1    0.000000    0.000000
   -7   -4   -7    2    1    0.000000   -0.000000
   -7   -4   -7    3    1   -0.000000    0.000000
   -7   -4   -7    1    2    0.000000   -0.000000
   -7   -4   -7    2    2   -0.000000   -0.000000
   -7   -4   -7    3    2   -0.000001    0.000000
   -7   -4   -7    1    3   -0.000000    0.000000
   -7   -4   -7    2    3   -0.000001    0.000000
   -7   -4   -7    3    3   -0.000001    0.000000
   -7   -3   -6    1    1   -0.000000    0.000000
   -7   -3   -6    2    1    0.000000    0.000000
   -7   -3   -6    3    1   -0.000000    0.000000
   -7   -3   -6    1    2    0.000000   -0.000000
   -7   -3   -6    2    2    0.000000   -0.000000
   -7   -3   -6    3    2    0.000001   -0.000000
   -7   -3   -6    1    3   -0.000000    0.000000
   -7   -3   -6    2    3    0.000002   -0.000000
   -7   -3   -6    3    3    0.000000    0.000000
   -7   -3   -5    1    1   -0.000000   -0.000000
   -7   -3   -5    2    1   -0.000000   -0.000000
   -7   -3   -5    3    1   -0.000000   -0.000000
   -7   -3   -5    1    2   -0.000000   -0.000000
   -7   -3   -5    2    2   -0.000000    0.000000
   -7   -3   -5    3    2   -0.000000    0.000000
   -7   -3   -5    1    3   -0.000000    0.000000
   -7   -3   -5    2    3   -0.000000   -0.000000
   -7   -3   -5    3    3    0.000000   -0.000000
   -7   -2   -5    1    1    0.000001    0.000000
   -7   -2   -5    2    1   -0.000000   -0.000000
   -7   -2   -5    3    1   -0.000000    0.000000
   -7   -2   -5    1    2    0.000000   -0.000000
   -7   -2   -5    2    2   -0.000000   -0.000000
   -7   -2   -5    3    2   -0.000000    0.000000
   -7   -2   -5    1    3    0.000000    0.000000
   -7   -2   -5    2    3    0.000000   -0.000000
   -7   -2   -5    3    3    0.000000    0.000000
   -7   -2   -4    1    1   -0.000000   -0.000000
   -7   -2   -4    2    1    0.000000    0.000000
   -7   -2   -4    3    1   -0.000000   -0.000000
   -7   -2   -4    1    2    0.000000   -0.000000
   -7   -2   -4    2    2   -0.000000    0.000000
   -7   -2   -4    3    2    0.000000    0.000000
   -7   -2   -4    1    3   -0.000000   -0.000000
   -7   -2   -4    2    3    0.000000    0.000000
   -7   -2   -4    3    3    0.000000   -0.000000
   -7   -1   -4    1    1   -0.000000   -0.000000
   -7   -1   -4    2    1   -0.000000   -0.000000
   -7   -1   -4    3    1   -0.000000    0.000000
   -7   -1   -4    1    2   -0.000000   -0.000000
   -7   -1   -4    2    2    0.000000   -0.000000
   -7   -1   -4    3    2   -0.000002   -0.000000
   -7   -1   -4    1    3   -0.000000    0.000000
   -7   -1   -4    2    3   -0.000002   -0.000000
   -7   -1   -4    3    3    0.000000    0.000000
   -7    0   -3    1    1    0.000000   -0.000000
   -7    0   -3    2    1   -0.000000    0.000000
   -7    0   -3    3    1    0.000000   -0.000000
   -7    0   -3    1    2   -0.000000   -0.000000
   -7    0   -3    2    2   -0.000000    0.000000
   -7    0   -3    3    2    0.000001   -0.000000
   -7    0   -3    1    3    0.000000   -0.000000
   -7    0   -3    2    3    0.000001   -0.000000
   -7    0   -3    3    3   -0.000001    0.000000
   -7    1   -2    1    1   -0.000000   -0.000000
   -7    1   -2    2    1   -0.000000   -0.000000
   -7    1   -2    3    1    0.000000   -0.000000
   -7    1   -2    1    2    0.000000   -0.000000
   -7    1   -2    2    2   -0.000002   -0.000000
   -7    1   -2    3    2   -0.000001    0.000000
   -7    1   -2    1    3    0.000000    0.000000
   -7    1   -2    2    3   -0.000000   -0.000000
   -7    1   -2    3    3    0.000001    0.000000
   -7    2   -1    1    1   -0.000001    0.000000
   -7    2   -1    2    1   -0.000000   -0.000000
   -7    2   -1    3    1    0.000000    0.000000
   -7    2   -1    1    2   -0.000000    0.000000
   -7    2   -1    2    2   -0.000001   -0.000000
   -7    2   -1    3    2   -0.000001    0.000000
   -7    2   -1    1    3    0.000000    0.000000
   -7    2   -1    2    3   -0.000001   -0.000000
   -7    2   -1    3    3    0.000000    0.000000
   -7    3    0    1    1    0.000000    0.000000
   -7    3    0    2    1   -0.000000    0.000000
   -7    3    0    3    1    0.000000   -0.000000
   -7    3    0    1    2   -0.000000   -0.000000
   -7    3    0    2    2    0.000000    0.000000
   -7    3    0    3    2    0.000000   -0.000000
   -7    3    0    1    3    0.000000    0.000000
   -7    3    0    2    3    0.000000   -0.000000
   -7    3    0    3    3   -0.000000   -0.000000
   -6   -7   -9    1    1   -0.000001    0.000000
   -6   -7   -9    2    1    0.000000    0.000000
   -6   -7   -9    3    1    0.000001    0.000000
   -6   -7   -9    1    2    0.000000   -0.000000
   -6   -7   -9    2    2   -0.000001   -0.000000
   -6   -7   -9    3    2    0.000000   -0.000000
   -6   -7   -9    1    3    0.000001    0.000000
   -6   -7   -9    2    3    0.000000   -0.000000
   -6   -7   -9    3    3    0.000000   -0.000000
   -6   -6  -10    1    1   -0.000002    0.000000
   -6   -6  -10    2    1    0.000000   -0.000000
   -6   -6  -10    3    1   -0.000000    0.000000
   -6   -6  -10    1    2    0.000000   -0.000000
   -6   -6  -10    2    2   -0.000002   -0.000000
   -6   -6  -10    3    2   -0.000000    0.000000
   -6   -6  -10    1    3   -0.000000    0.000000
   -6   -6  -10    2    3   -0.000000    0.000000
   -6   -6  -10    3    3   -0.000004    0.000000
   -6   -6   -9    1    1   -0.000001   -0.000000
   -6   -6   -9    2    1   -0.000002   -0.000000
   -6   -6   -9    3    1    0.000001    0.000000
   -6   -6   -9    1    2   -0.000002    0.000000
   -6   -6   -9    2    2   -0.000001    0.000000
   -6   -6   -9    3    2    0.000001    0.000000
   -6   -6   -9    1    3    0.000001   -0.000000
   -6   -6   -9    2    3    0.000001    0.000000
   -6   -6   -9    3    3    0.000002    0.000000
   -6   -6   -8    1    1   -0.000001   -0.000000
   -6   -6   -8    2    1   -0.000000    0.000000
   -6   -6   -8    3    1   -0.000000   -0.000000
   -6   -6   -8    1    2   -0.000000   -0.000000
   -6   -6   -8    2    2   -0.000001    0.000000
   -6   -6   -8    3    2   -0.000000   -0.000000
   -6   -6   -8    1    3   -0.000000    0.000000
   -6   -6   -8    2    3   -0.000000    0.000000
   -6   -6   -8    3    3    0.000000    0.000000
   -6   -5   -9    1    1    0.000001   -0.000000
   -6   -5   -9    2    1   -0.000000   -0.000000
   -6   -5   -9    3    1   -0.000000   -0.000000
   -6   -5   -9    1    2    0.000000   -0.000000
   -6   -5   -9    2    2    0.000001    0.000000
   -6   -5   -9    3    2    0.000002    0.000000
   -6   -5   -9    1    3    0.000000    0.000000
   -6   -5   -9    2    3    0.000002    0.000000
   -6   -5   -9    3    3    0.000001   -0.000000
   -6   -5   -8    1    1   -0.000000    0.000000
   -6   -5   -8    2    1    0.000000   -0.000000
   -6   -5   -8    3    1    0.000000    0.000000
   -6   -5   -8    1    2   -0.000000    0.000000
   -6   -5   -8    2    2   -0.000001   -0.000000
   -6   -5   -8    3    2    0.000001   -0.000000
   -6   -5   -8    1    3    0.000000    0.000000
   -6   -5   -8    2    3    0.000001   -0.000000
   -6   -5   -8    3    3   -0.000001    0.000000
   -6   -5   -7    1    1   -0.000001   -0.000000
   -6   -5   -7    2    1   -0.000001   -0.000000
   -6   -5   -7    3    1    0.000001    0.000000
   -6   -5   -7    1    2   -0.000001   -0.000000
   -6   -5   -7    2    2   -0.000001    0.000000
   -6   -5   -7    3    2    0.000000    0.000000
   -6   -5   -7    1    3    0.000000    0.000000
   -6   -5   -7    2    3    0.000001   -0.000000
   -6   -5   -7    3    3   -0.000001    0.000000
   -6   -4   -8    1    1    0.000000   -0.000000
   -6   -4   -8    2    1    0.000000   -0.000000
   -6   -4   -8    3    1    0.000000    0.000000
   -6   -4   -8    1    2    0.000000   -0.000000
   -6   -4   -8    2    2   -0.000001   -0.000000
   -6   -4   -8    3    2    0.000009   -0.000000
   -6   -4   -8    1    3   -0.000000    0.000000
   -6   -4   -8    2    3    0.000009   -0.000000
   -6   -4   -8    3    3    0.000002    0.000000
   -6   -4   -7    1    1   -0.000001    0.000000
   -6   -4   -7    2    1   -0.000001    0.000000
   -6   -4   -7    3    1    0.000001    0.000000
   -6   -4   -7    1    2   -0.000001   -0.000000
   -6   -4   -7    2    2   -0.000002    0.000000
   -6   -4   -7    3    2    0.000002    0.000000
   -6   -4   -7    1    3    0.000001    0.000000
   -6   -4   -7    2    3    0.000002    0.000000
   -6   -4   -7    3    3   -0.000000   -0.000000
   -6   -4   -6    1    1   -0.000000   -0.000000
   -6   -4   -6    2    1   -0.000001   -0.000000
   -6   -4   -6    3    1    0.000000   -0.000000
   -6   -4   -6    1    2   -0.000001    0.000000
   -6   -4   -6    2    2   -0.000002    0.000000
   -6   -4   -6    3    2    0.000001    0.000000
   -6   -4   -6    1    3    0.000000   -0.000000
   -6   -4   -6    2    3    0.000001   -0.000000
   -6   -4   -6    3    3    0.000000    0.000000
   -6   -4   -5    1    1   -0.000000    0.000000
   -6   -4   -5    2    1   -0.000001   -0.000000
   -6   -4   -5    3    1    0.000000    0.000000
   -6   -4   -5    1    2   -0.000001   -0.000000
   -6   -4   -5    2    2   -0.000000   -0.000000
   -6   -4   -5    3    2    0.000000   -0.000000
   -6   -4   -5    1    3    0.000000    0.000000
   -6   -4   -5    2    3    0.000000   -0.000000
   -6   -4   -5    3    3   -0.000000   -0.000000
   -6   -3   -7    1    1    0.000003    0.000000
   -6   -3   -7    2    1    0.000000   -0.000000
   -6   -3   -7    3    1    0.000000   -0.000000
   -6   -3   -7    1    2   -0.000000   -0.000000
   -6   -3   -7    2    2    0.000007   -0.000000
   -6   -3   -7    3    2    0.000007   -0.000000
   -6   -3   -7    1    3   -0.000000   -0.000000
   -6   -3   -7    2    3    0.000007   -0.000000
   -6   -3   -7    3    3   -0.000005    0.000000
   -6   -3   -6    1    1    0.000001   -0.000000
   -6   -3   -6    2    1   -0.000001   -0.000000
   -6   -3   -6    3    1    0.000000    0.000000
   -6   -3   -6    1    2   -0.000001   -0.000000
   -6   -3   -6    2    2    0.000000    0.000000
   -6   -3   -6    3    2    0.000001    0.000000
   -6   -3   -6    1    3    0.000000    0.000000
   -6   -3   -6    2    3    0.000001    0.000000
   -6   -3   -6    3    3   -0.000000   -0.000000
   -6   -3   -5    1    1    0.000000   -0.000000
   -6   -3   -5    2    1   -0.000001   -0.000000
   -6   -3   -5    3    1   -0.000000    0.000000
   -6   -3   -5    1    2   -0.000001    0.000000
   -6   -3   -5    2    2   -0.000001   -0.000000
   -6   -3   -5    3    2   -0.000001   -0.000000
   -6   -3   -5    1    3   -0.000000   -0.000000
   -6   -3   -5    2    3   -0.000001   -0.000000
   -6   -3   -5    3    3    0.000000    0.000000
   -6   -3   -4    1    1   -0.000000    0.000000
   -6   -3   -4    2    1   -0.000000    0.000000
   -6   -3   -4    3    1    0.000000   -0.000000
   -6   -3   -4    1    2   -0.000000   -0.000000
   -6   -3   -4    2    2   -0.000000   -0.000000
   -6   -3   -4    3    2    0.000000    0.000000
   -6   -3   -4    1    3    0.000000    0.000000
   -6   -3   -4    2    3    0.000000   -0.000000
   -6   -3   -4    3    3    0.000000   -0.000000
   -6   -2   -6    1    1   -0.000006    0.000000
   -6   -2   -6    2    1   -0.000000   -0.000000
   -6   -2   -6    3    1    0.000000   -0.000000
   -6   -2   -6    1    2   -0.000000    0.000000
   -6   -2   -6    2    2    0.000030    0.000000
   -6   -2   -6    3    2    0.000009    0.000000
   -6   -2   -6    1    3    0.000000   -0.000000
   -6   -2   -6    2    3    0.000009   -0.000000
   -6   -2   -6    3    3    0.000006    0.000000
   -6   -2   -5    1    1    0.000000   -0.000000
   -6   -2   -5    2    1   -0.000000   -0.000000
   -6   -2   -5    3    1    0.000000    0.000000
   -6   -2   -5    1    2   -0.000000   -0.000000
   -6   -2   -5    2    2    0.000004   -0.000000
   -6   -2   -5    3    2    0.000001    0.000000
   -6   -2   -5    1    3    0.000000    0.000000
   -6   -2   -5    2    3    0.000001    0.000000
   -6   -2   -5    3    3    0.000001   -0.000000
   -6   -2   -4    1    1    0.000001   -0.000000
   -6   -2   -4    2    1   -0.000000   -0.000000
   -6   -2   -4    3    1    0.000001    0.000000
   -6   -2   -4    1    2   -0.000000    0.000000
   -6   -2   -4    2    2   -0.000000   -0.000000
   -6   -2   -4    3    2   -0.000000   -0.000000
   -6   -2   -4    1    3    0.000001   -0.000000
   -6   -2   -4    2    3   -0.000000   -0.000000
   -6   -2   -4    3    3   -0.000000    0.000000
   -6   -2   -3    1    1   -0.000000    0.000000
   -6   -2   -3    2    1    0.000000    0.000000
   -6   -2   -3    3    1    0.000000   -0.000000
   -6   -2   -3    1    2    0.000000   -0.000000
   -6   -2   -3    2    2   -0.000000   -0.000000
   -6   -2   -3    3    2   -0.000000    0.000000
   -6   -2   -3    1    3    0.000000    0.000000
   -6   -2   -3    2    3   -0.000000    0.000000
   -6   -2   -3    3    3    0.000000   -0.000000
   -6   -1   -5    1    1   -0.000002    0.000000
   -6   -1   -5    2    1    0.000000    0.000000
   -6   -1   -5    3    1   -0.000000   -0.000000
   -6   -1   -5    1    2   -0.000000   -0.000000
   -6   -1   -5    2    2    0.000040   -0.000000
   -6   -1   -5    3    2    0.000000   -0.000000
   -6   -1   -5    1    3   -0.000000   -0.000000
   -6   -1   -5    2    3    0.000000   -0.000000
   -6   -1   -5    3    3    0.000012    0.000000
   -6   -1   -4    1    1    0.000000   -0.000000
   -6   -1   -4    2    1    0.000000    0.000000
   -6   -1   -4    3    1    0.000000    0.000000
   -6   -1   -4    1    2    0.000000    0.000000
   -6   -1   -4    2    2    0.000004    0.000000
   -6   -1   -4    3    2   -0.000001    0.000000
   -6   -1   -4    1    3    0.000000    0.000000
   -6   -1   -4    2    3   -0.000001    0.000000
   -6   -1   -4    3    3    0.000001   -0.000000
   -6   -1   -3    1    1    0.000000    0.000000
   -6   -1   -3    2    1    0.000001   -0.000000
   -6   -1   -3    3    1   -0.000000   -0.000000
   -6   -1   -3    1    2    0.000001    0.000000
   -6   -1   -3    2    2   -0.000001    0.000000
   -6   -1   -3    3    2    0.000001   -0.000000
   -6   -1   -3    1    3   -0.000000   -0.000000
   -6   -1   -3    2    3    0.000001   -0.000000
   -6   -1   -3    3    3    0.000000    0.000000
   -6   -1   -2    1    1   -0.000000    0.000000
   -6   -1   -2    2    1    0.000001    0.000000
   -6   -1   -2    3    1    0.000000   -0.000000
   -6   -1   -2    1    2    0.000001    0.000000
   -6   -1   -2    2    2   -0.000000    0.000000
   -6   -1   -2    3    2   -0.000000    0.000000
   -6   -1   -2    1    3    0.000000   -0.000000
   -6   -1   -2    2    3   -0.000000    0.000000
   -6   -1   -2    3    3   -0.000000   -0.000000
   -6    0   -4    1    1   -0.000006   -0.000000
   -6    0   -4    2    1   -0.000000    0.000000
   -6    0   -4    3    1    0.000000   -0.000000
   -6    0   -4    1    2   -0.000000   -0.000000
   -6    0   -4    2    2    0.000030   -0.000000
   -6    0   -4    3    2   -0.000009    0.000000
   -6    0   -4    1    3    0.000000   -0.000000
   -6    0   -4    2    3   -0.000009   -0.000000
   -6    0   -4    3    3    0.000006    0.000000
   -6    0   -3    1    1    0.000001    0.000000
   -6    0   -3    2    1    0.000001    0.000000
   -6    0   -3    3    1    0.000000    0.000000
   -6    0   -3    1    2    0.000001    0.000000
   -6    0   -3    2    2    0.000000   -0.000000
   -6    0   -3    3    2   -0.000001    0.000000
   -6    0   -3    1    3    0.000000    0.000000
   -6    0   -3    2    3   -0.000001    0.000000
   -6    0   -3    3    3   -0.000000   -0.000000
   -6    0   -2    1    1   -0.000000    0.000000
   -6    0   -2    2    1    0.000001    0.000000
   -6    0   -2    3    1    0.000000   -0.000000
   -6    0   -2    1    2    0.000001    0.000000
   -6    0   -2    2    2   -0.000002   -0.000000
   -6    0   -2    3    2   -0.000001   -0.000000
   -6    0   -2    1    3    0.000000    0.000000
   -6    0   -2    2    3   -0.000001   -0.000000
   -6    0   -2    3    3    0.000000    0.000000
   -6    1   -3    1    1    0.000003   -0.000000
   -6    1   -3    2    1   -0.000000    0.000000
   -6    1   -3    3    1    0.000000   -0.000000
   -6    1   -3    1    2    0.000000    0.000000
   -6    1   -3    2    2    0.000007    0.000000
   -6    1   -3    3    2   -0.000008   -0.000000
   -6    1   -3    1    3   -0.000000   -0.000000
   -6    1   -3    2    3   -0.000008    0.000000
   -6    1   -3    3    3   -0.000005    0.000000
   -6    1   -2    1    1   -0.000001    0.000000
   -6    1   -2    2    1    0.000001    0.000000
   -6    1   -2    3    1    0.000001    0.000000
   -6    1   -2    1    2    0.000001    0.000000
   -6    1   -2    2    2   -0.000002   -0.000000
   -6    1   -2    3    2   -0.000002    0.000000
   -6    1   -2    1    3    0.000001   -0.000000
   -6    1   -2    2    3   -0.000002    0.000000
   -6    1   -2    3    3   -0.000000   -0.000000
   -6    1   -1    1    1   -0.000001   -0.000000
   -6    1   -1    2    1    0.000001    0.000000
   -6    1   -1    3    1    0.000001   -0.000000
   -6    1   -1    1    2    0.000001    0.000000
   -6    1   -1    2    2   -0.000001    0.000000
   -6    1   -1    3    2   -0.000001   -0.000000
   -6    1   -1    1    3    0.000001   -0.000000
   -6    1   -1    2    3   -0.000001    0.000000
   -6    1   -1    3    3   -0.000001    0.000000
   -6    2   -2    1    1    0.000000   -0.000000
   -6    2   -2    2    1    0.000000    0.000000
   -6    2   -2    3    1   -0.000000   -0.000000
   -6    2   -2    1    2    0.000000   -0.000000
   -6    2   -2    2    2   -0.000001    0.000000
   -6    2   -2    3    2   -0.000009   -0.000000
   -6    2   -2    1    3   -0.000000   -0.000000
   -6    2   -2    2    3   -0.000009   -0.000000
   -6    2   -2    3    3    0.000002   -0.000000
   -6    2   -1    1    1   -0.000000   -0.000000
   -6    2   -1    2    1    0.000000   -0.000000
   -6    2   -1    3    1    0.000000    0.000000
   -6    2   -1    1    2   -0.000000    0.000000
   -6    2   -1    2    2   -0.000001    0.000000
   -6    2   -1    3    2   -0.000001   -0.000000
   -6    2   -1    1    3    0.000000    0.000000
   -6    2   -1    2    3   -0.000001    0.000000
   -6    2   -1    3    3   -0.000000   -0.000000
   -6    2    0    1    1   -0.000001    0.000000
   -6    2    0    2    1    0.000000   -0.000000
   -6    2    0    3    1   -0.000000   -0.000000
   -6    2    0    1    2    0.000000    0.000000
   -6    2    0    2    2   -0.000001    0.000000
   -6    2    0    3    2    0.000000   -0.000000
   -6    2    0    1    3   -0.000000    0.000000
   -6    2    0    2    3    0.000000   -0.000000
   -6    2    0    3    3    0.000000   -0.000000
   -6    3   -1    1    1    0.000001    0.000000
   -6    3   -1    2    1    0.000000   -0.000000
   -6    3   -1    3    1    0.000000   -0.000000
   -6    3   -1    1    2   -0.000000   -0.000000
   -6    3   -1    2    2    0.000001   -0.000000
   -6    3   -1    3    2   -0.000002   -0.000000
   -6    3   -1    1    3   -0.000000    0.000000
   -6    3   -1    2    3   -0.000002    0.000000
   -6    3   -1    3    3    0.000001    0.000000
   -6    3    0    1    1   -0.000001    0.000000
   -6    3    0    2    1    0.000002    0.000000
   -6    3    0    3    1    0.000001    0.000000
   -6    3    0    1    2    0.000002    0.000000
   -6    3    0    2    2   -0.000001   -0.000000
   -6    3    0    3    2   -0.000001    0.000000
   -6    3    0    1    3    0.000001   -0.000000
   -6    3    0    2    3   -0.000001   -0.000000
   -6    3    0    3    3    0.000002    0.000000
   -6    3    1    1    1   -0.000001    0.000000
   -6    3    1    2    1    0.000000    0.000000
   -6    3    1    3    1    0.000001    0.000000
   -6    3    1    1    2    0.000000   -0.000000
   -6    3    1    2    2   -0.000001   -0.000000
   -6    3    1    3    2    0.000000   -0.000000
   -6    3    1    1    3    0.000001    0.000000
   -6    3    1    2    3    0.000000   -0.000000
   -6    3    1    3    3    0.000000   -0.000000
   -6    4    0    1    1   -0.000002    0.000000
   -6    4    0    2    1    0.000000   -0.000000
   -6    4    0    3    1   -0.000000    0.000000
   -6    4    0    1    2    0.000000   -0.000000
   -6    4    0    2    2   -0.000002   -0.000000
   -6    4    0    3    2   -0.000000    0.000000
   -6    4    0    1    3   -0.000000    0.000000
   -6    4    0    2    3   -0.000000    0.000000
   -6    4    0    3    3   -0.000004    0.000000
   -5   -7   -8    1    1   -0.000002   -0.000000
   -5   -7   -8    2    1    0.000000    0.000000
   -5   -7   -8    3    1    0.000000   -0.000000
   -5   -7   -8    1    2   -0.000000   -0.000000
   -5   -7   -8    2    2   -0.000000   -0.000000
   -5   -7   -8    3    2    0.000000    0.000000
   -5   -7   -8    1    3    0.000000    0.000000
   -5   -7   -8    2    3    0.000000   -0.000000
   -5   -7   -8    3    3    0.000001   -0.000000
   -5   -6   -9    1    1    0.000001    0.000000
   -5   -6   -9    2    1   -0.000000   -0.000000
   -5   -6   -9    3    1    0.000002    0.000000
   -5   -6   -9    1    2   -0.000000   -0.000000
   -5   -6   -9    2    2    0.000001   -0.000000
   -5   -6   -9    3    2    0.000000    0.000000
   -5   -6   -9    1    3    0.000002    0.000000
   -5   -6   -9    2    3   -0.000000    0.000000
   -5   -6   -9    3    3    0.000001   -0.000000
   -5   -6   -8    1    1   -0.000001    0.000000
   -5   -6   -8    2    1    0.000000   -0.000000
   -5   -6   -8    3    1    0.000001    0.000000
   -5   -6   -8    1    2   -0.000000   -0.000000
   -5   -6   -8    2    2   -0.000000   -0.000000
   -5   -6   -8    3    2    0.000000   -0.000000
   -5   -6   -8    1    3    0.000001    0.000000
   -5   -6   -8    2    3    0.000000    0.000000
   -5   -6   -8    3    3   -0.000001    0.000000
   -5   -6   -7    1    1   -0.000001    0.000000
   -5   -6   -7    2    1   -0.000001   -0.000000
   -5   -6   -7    3    1    0.000001   -0.000000
   -5   -6   -7    1    2   -0.000001   -0.000000
   -5   -6   -7    2    2   -0.000001   -0.000000
   -5   -6   -7    3    2    0.000001    0.000000
   -5   -6   -7    1    3    0.000001    0.000000
   -5   -6   -7    2    3    0.000001   -0.000000
   -5   -6   -7    3    3   -0.000001   -0.000000
   -5   -5  -10    1    1   -0.000009   -0.000000
   -5   -5  -10    2    1   -0.000000    0.000000
   -5   -5  -10    3    1   -0.000000   -0.000000
   -5   -5  -10    1    2   -0.000000   -0.000000
   -5   -5  -10    2    2   -0.000009   -0.000000
   -5   -5  -10    3    2   -0.000000    0.000000
   -5   -5  -10    1    3   -0.000000    0.000000
   -5   -5  -10    2    3   -0.000000   -0.000000
   -5   -5  -10    3    3   -0.001639   -0.000000
   -5   -5   -9    1    1    0.000000   -0.000000
   -5   -5   -9    2    1   -0.000005   -0.000000
   -5   -5   -9    3    1    0.000010   -0.000000
   -5   -5   -9    1    2   -0.000005    0.000000
   -5   -5   -9    2    2    0.000000    0.000000
   -5   -5   -9    3    2    0.000010   -0.000000
   -5   -5   -9    1    3    0.000010   -0.000000
   -5   -5   -9    2    3    0.000010   -0.000000
   -5   -5   -9    3    3   -0.000050    0.000000
   -5   -5   -8    1    1   -0.000003    0.000000
   -5   -5   -8    2    1   -0.000001    0.000000
   -5   -5   -8    3    1    0.000006    0.000000
   -5   -5   -8    1    2   -0.000001    0.000000
   -5   -5   -8    2    2   -0.000003    0.000000
   -5   -5   -8    3    2    0.000006    0.000000
   -5   -5   -8    1    3    0.000006    0.000000
   -5   -5   -8    2    3    0.000006   -0.000000
   -5   -5   -8    3    3   -0.000006   -0.000000
   -5   -5   -7    1    1   -0.000004   -0.000000
   -5   -5   -7    2    1   -0.000003    0.000000
   -5   -5   -7    3    1    0.000002    0.000000
   -5   -5   -7    1    2   -0.000003    0.000000
   -5   -5   -7    2    2   -0.000004    0.000000
   -5   -5   -7    3    2    0.000002   -0.000000
   -5   -5   -7    1    3    0.000002    0.000000
   -5   -5   -7    2    3    0.000002    0.000000
   -5   -5   -7    3    3   -0.000001    0.000000
   -5   -5   -6    1    1   -0.000001   -0.000000
   -5   -5   -6    2    1   -0.000001   -0.000000
   -5   -5   -6    3    1    0.000000   -0.000000
   -5   -5   -6    1    2   -0.000002    0.000000
   -5   -5   -6    2    2   -0.000001    0.000000
   -5   -5   -6    3    2    0.000000    0.000000
   -5   -5   -6    1    3    0.000000   -0.000000
   -5   -5   -6    2    3    0.000000   -0.000000
   -5   -5   -6    3    3   -0.000001   -0.000000
   -5   -5   -5    1    1   -0.000001   -0.000000
   -5   -5   -5    2    1   -0.000001   -0.000000
   -5   -5   -5    3    1    0.000001    0.000000
   -5   -5   -5    1    2   -0.000001    0.000000
   -5   -5   -5    2    2   -0.000001   -0.000000
   -5   -5   -5    3    2    0.000000   -0.000000
   -5   -5   -5    1    3    0.000001   -0.000000
   -5   -5   -5    2    3    0.000000    0.000000
   -5   -5   -5    3    3   -0.000001   -0.000000
   -5   -4   -9    1    1    0.000009    0.000000
   -5   -4   -9    2    1   -0.000000    0.000000
   -5   -4   -9    3    1   -0.000000    0.000000
   -5   -4   -9    1    2   -0.000000    0.000000
   -5   -4   -9    2    2    0.000017   -0.000000
   -5   -4   -9    3    2   -0.000000   -0.000000
   -5   -4   -9    1    3   -0.000000   -0.000000
   -5   -4   -9    2    3    0.000000   -0.000000
   -5   -4   -9    3    3   -0.001731    0.000000
   -5   -4   -8    1    1    0.000002    0.000000
   -5   -4   -8    2    1    0.000001   -0.000000
   -5   -4   -8    3    1    0.000011   -0.000000
   -5   -4   -8    1    2    0.000001   -0.000000
   -5   -4   -8    2    2   -0.000002    0.000000
   -5   -4   -8    3    2    0.000024    0.000000
   -5   -4   -8    1    3    0.000011    0.000000
   -5   -4   -8    2    3    0.000024    0.000000
   -5   -4   -8    3    3   -0.000030   -0.000000
   -5   -4   -7    1    1   -0.000002   -0.000000
   -5   -4   -7    2    1   -0.000002    0.000000
   -5   -4   -7    3    1    0.000004   -0.000000
   -5   -4   -7    1    2   -0.000002   -0.000000
   -5   -4   -7    2    2   -0.000005   -0.000000
   -5   -4   -7    3    2    0.000005   -0.000000
   -5   -4   -7    1    3    0.000004   -0.000000
   -5   -4   -7    2    3    0.000005   -0.000000
   -5   -4   -7    3    3   -0.000018    0.000000
   -5   -4   -6    1    1   -0.000003    0.000000
   -5   -4   -6    2    1   -0.000006    0.000000
   -5   -4   -6    3    1    0.000001    0.000000
   -5   -4   -6    1    2   -0.000006   -0.000000
   -5   -4   -6    2    2   -0.000007    0.000000
   -5   -4   -6    3    2    0.000001   -0.000000
   -5   -4   -6    1    3    0.000001    0.000000
   -5   -4   -6    2    3    0.000001    0.000000
   -5   -4   -6    3    3   -0.000004   -0.000000
   -5   -4   -5    1    1   -0.000001    0.000000
   -5   -4   -5    2    1   -0.000003    0.000000
   -5   -4   -5    3    1    0.000001   -0.000000
   -5   -4   -5    1    2   -0.000003    0.000000
   -5   -4   -5    2    2   -0.000002    0.000000
   -5   -4   -5    3    2   -0.000000    0.000000
   -5   -4   -5    1    3    0.000000   -0.000000
   -5   -4   -5    2    3   -0.000000   -0.000000
   -5   -4   -5    3    3   -0.000000   -0.000000
   -5   -4   -4    1    1   -0.000000    0.000000
   -5   -4   -4    2    1   -0.000001   -0.000000
   -5   -4   -4    3    1   -0.000000    0.000000
   -5   -4   -4    1    2   -0.000001    0.000000
   -5   -4   -4    2    2   -0.000001    0.000000
   -5   -4   -4    3    2    0.000000   -0.000000
   -5   -4   -4    1    3   -0.000000    0.000000
   -5   -4   -4    2    3   -0.000000    0.000000
   -5   -4   -4    3    3    0.000000   -0.000000
   -5   -3   -8    1    1    0.000009    0.000000
   -5   -3   -8    2    1    0.000000    0.000000
   -5   -3   -8    3    1   -0.000000   -0.000000
   -5   -3   -8    1    2   -0.000000    0.000000
   -5   -3   -8    2    2    0.000015    0.000000
   -5   -3   -8    3    2    0.000000   -0.000000
   -5   -3   -8    1    3   -0.000000   -0.000000
   -5   -3   -8    2    3    0.000000   -0.000000
   -5   -3   -8    3    3   -0.001842   -0.000000
   -5   -3   -7    1    1   -0.000006   -0.000000
   -5   -3   -7    2    1    0.000026    0.000000
   -5   -3   -7    3    1    0.000018    0.000000
   -5   -3   -7    1    2    0.000026    0.000000
   -5   -3   -7    2    2   -0.000002    0.000000
   -5   -3   -7    3    2    0.000022    0.000000
   -5   -3   -7    1    3    0.000018    0.000000
   -5   -3   -7    2    3    0.000023    0.000000
   -5   -3   -7    3    3   -0.000023    0.000000
   -5   -3   -6    1    1   -0.000001    0.000000
   -5   -3   -6    2    1    0.000000   -0.000000
   -5   -3   -6    3    1    0.000004    0.000000
   -5   -3   -6    1    2    0.000000    0.000000
   -5   -3   -6    2    2   -0.000009   -0.000000
   -5   -3   -6    3    2    0.000009   -0.000000
   -5   -3   -6    1    3    0.000004   -0.000000
   -5   -3   -6    2    3    0.000009   -0.000000
   -5   -3   -6    3    3   -0.000004    0.000000
   -5   -3   -5    1    1   -0.000001   -0.000000
   -5   -3   -5    2    1   -0.000006    0.000000
   -5   -3   -5    3    1    0.000002   -0.000000
   -5   -3   -5    1    2   -0.000006   -0.000000
   -5   -3   -5    2    2   -0.000006   -0.000000
   -5   -3   -5    3    2    0.000001    0.000000
   -5   -3   -5    1    3    0.000002    0.000000
   -5   -3   -5    2    3    0.000001    0.000000
   -5   -3   -5    3    3   -0.000002    0.000000
   -5   -3   -4    1    1    0.000001    0.000000
   -5   -3   -4    2    1   -0.000002    0.000000
   -5   -3   -4    3    1    0.000002   -0.000000
   -5   -3   -4    1    2   -0.000002    0.000000
   -5   -3   -4    2    2   -0.000003    0.000000
   -5   -3   -4    3    2    0.000000    0.000000
   -5   -3   -4    1    3    0.000002   -0.000000
   -5   -3   -4    2    3    0.000000    0.000000
   -5   -3   -4    3    3   -0.000000    0.000000
   -5   -3   -3    1    1   -0.000000    0.000000
   -5   -3   -3    2    1   -0.000000   -0.000000
   -5   -3   -3    3    1    0.000001    0.000000
   -5   -3   -3    1    2   -0.000000    0.000000
   -5   -3   -3    2    2   -0.000001   -0.000000
   -5   -3   -3    3    2   -0.000000   -0.000000
   -5   -3   -3    1    3    0.000001    0.000000
   -5   -3   -3    2    3   -0.000000   -0.000000
   -5   -3   -3    3    3   -0.000000   -0.000000
   -5   -2   -7    1    1    0.000003    0.000000
   -5   -2   -7    2    1    0.000000    0.000000
   -5   -2   -7    3    1   -0.000000    0.000000
   -5   -2   -7    1    2   -0.000000   -0.000000
   -5   -2   -7    2    2   -0.000118   -0.000000
   -5   -2   -7    3    2    0.000000   -0.000000
   -5   -2   -7    1    3   -0.000000   -0.000000
   -5   -2   -7    2    3    0.000000   -0.000000
   -5   -2   -7    3    3   -0.001889   -0.000000
   -5   -2   -6    1    1   -0.000002    0.000000
   -5   -2   -6    2    1    0.000040    0.000000
   -5   -2   -6    3    1    0.000016   -0.000000
   -5   -2   -6    1    2    0.000040    0.000000
   -5   -2   -6    2    2    0.000031    0.000000
   -5   -2   -6    3    2    0.000007   -0.000000
   -5   -2   -6    1    3    0.000016    0.000000
   -5   -2   -6    2    3    0.000007   -0.000000
   -5   -2   -6    3    3   -0.000026   -0.000000
   -5   -2   -5    1    1   -0.000001    0.000000
   -5   -2   -5    2    1    0.000009    0.000000
   -5   -2   -5    3    1   -0.000000   -0.000000
   -5   -2   -5    1    2    0.000009    0.000000
   -5   -2   -5    2    2    0.000017    0.000000
   -5   -2   -5    3    2    0.000007   -0.000000
   -5   -2   -5    1    3   -0.000000   -0.000000
   -5   -2   -5    2    3    0.000007   -0.000000
   -5   -2   -5    3    3    0.000008   -0.000000
   -5   -2   -4    1    1    0.000005   -0.000000
   -5   -2   -4    2    1   -0.000004    0.000000
   -5   -2   -4    3    1    0.000003   -0.000000
   -5   -2   -4    1    2   -0.000004    0.000000
   -5   -2   -4    2    2   -0.000010    0.000000
   -5   -2   -4    3    2   -0.000000   -0.000000
   -5   -2   -4    1    3    0.000003    0.000000
   -5   -2   -4    2    3   -0.000000    0.000000
   -5   -2   -4    3    3    0.000002   -0.000000
   -5   -2   -3    1    1    0.000001    0.000000
   -5   -2   -3    2    1    0.000000   -0.000000
   -5   -2   -3    3    1    0.000001   -0.000000
   -5   -2   -3    1    2    0.000000    0.000000
   -5   -2   -3    2    2   -0.000004    0.000000
   -5   -2   -3    3    2   -0.000000   -0.000000
   -5   -2   -3    1    3    0.000001   -0.000000
   -5   -2   -3    2    3   -0.000000   -0.000000
   -5   -2   -3    3    3    0.000002   -0.000000
   -5   -2   -2    1    1   -0.000000   -0.000000
   -5   -2   -2    2    1    0.000000    0.000000
   -5   -2   -2    3    1    0.000001   -0.000000
   -5   -2   -2    1    2    0.000000    0.000000
   -5   -2   -2    2    2   -0.000001   -0.000000
   -5   -2   -2    3    2    0.000000    0.000000
   -5   -2   -2    1    3    0.000001    0.000000
   -5   -2   -2    2    3    0.000000    0.000000
   -5   -2   -2    3    3   -0.000000   -0.000000
   -5   -1   -6    1    1    0.000006    0.000000
   -5   -1   -6    2    1    0.000000    0.000000
   -5   -1   -6    3    1   -0.000000   -0.000000
   -5   -1   -6    1    2    0.000000    0.000000
   -5   -1   -6    2    2   -0.000387   -0.000000
   -5   -1   -6    3    2   -0.000000    0.000000
   -5   -1   -6    1    3   -0.000000   -0.000000
   -5   -1   -6    2    3    0.000000    0.000000
   -5   -1   -6    3    3   -0.001569    0.000000
   -5   -1   -5    1    1    0.000005   -0.000000
   -5   -1   -5    2    1    0.000030   -0.000000
   -5   -1   -5    3    1    0.000008    0.000000
   -5   -1   -5    1    2    0.000030    0.000000
   -5   -1   -5    2    2    0.000106    0.000000
   -5   -1   -5    3    2   -0.000012   -0.000000
   -5   -1   -5    1    3    0.000008   -0.000000
   -5   -1   -5    2    3   -0.000012   -0.000000
   -5   -1   -5    3    3   -0.000165   -0.000000
   -5   -1   -4    1    1    0.000001    0.000000
   -5   -1   -4    2    1   -0.000000    0.000000
   -5   -1   -4    3    1    0.000005    0.000000
   -5   -1   -4    1    2    0.000000   -0.000000
   -5   -1   -4    2    2    0.000039   -0.000000
   -5   -1   -4    3    2    0.000000    0.000000
   -5   -1   -4    1    3    0.000005    0.000000
   -5   -1   -4    2    3    0.000000   -0.000000
   -5   -1   -4    3    3    0.000014    0.000000
   -5   -1   -3    1    1    0.000005    0.000000
   -5   -1   -3    2    1    0.000004    0.000000
   -5   -1   -3    3    1    0.000003   -0.000000
   -5   -1   -3    1    2    0.000004    0.000000
   -5   -1   -3    2    2   -0.000010   -0.000000
   -5   -1   -3    3    2    0.000000    0.000000
   -5   -1   -3    1    3    0.000003    0.000000
   -5   -1   -3    2    3    0.000000   -0.000000
   -5   -1   -3    3    3    0.000002   -0.000000
   -5   -1   -2    1    1    0.000001    0.000000
   -5   -1   -2    2    1    0.000002   -0.000000
   -5   -1   -2    3    1    0.000001   -0.000000
   -5   -1   -2    1    2    0.000002   -0.000000
   -5   -1   -2    2    2   -0.000003    0.000000
   -5   -1   -2    3    2   -0.000000   -0.000000
   -5   -1   -2    1    3    0.000001   -0.000000
   -5   -1   -2    2    3   -0.000000   -0.000000
   -5   -1   -2    3    3   -0.000000   -0.000000
   -5   -1   -1    1    1   -0.000000   -0.000000
   -5   -1   -1    2    1    0.000001   -0.000000
   -5   -1   -1    3    1   -0.000000    0.000000
   -5   -1   -1    1    2    0.000001    0.000000
   -5   -1   -1    2    2   -0.000001    0.000000
   -5   -1   -1    3    2    0.000000    0.000000
   -5   -1   -1    1    3   -0.000000    0.000000
   -5   -1   -1    2    3    0.000000   -0.000000
   -5   -1   -1    3    3    0.000000   -0.000000
   -5    0   -5    1    1   -0.000028    0.000000
   -5    0   -5    2    1    0.000000   -0.000000
   -5    0   -5    3    1   -0.000000   -0.000000
   -5    0   -5    1    2    0.000000    0.000000
   -5    0   -5    2    2   -0.000632    0.000000
   -5    0   -5    3    2   -0.000000    0.000000
   -5    0   -5    1    3   -0.000000    0.000000
   -5    0   -5    2    3   -0.000000   -0.000000
   -5    0   -5    3    3   -0.001169    0.000000
   -5    0   -4    1    1    0.000005    0.000000
   -5    0   -4    2    1   -0.000030   -0.000000
   -5    0   -4    3    1    0.000008   -0.000000
   -5    0   -4    1    2   -0.000030    0.000000
   -5    0   -4    2    2    0.000106   -0.000000
   -5    0   -4    3    2    0.000012   -0.000000
   -5    0   -4    1    3    0.000008   -0.000000
   -5    0   -4    2    3    0.000012    0.000000
   -5    0   -4    3    3   -0.000165   -0.000000
   -5    0   -3    1    1   -0.000001   -0.000000
   -5    0   -3    2    1   -0.000009    0.000000
   -5    0   -3    3    1   -0.000000    0.000000
   -5    0   -3    1    2   -0.000009   -0.000000
   -5    0   -3    2    2    0.000017   -0.000000
   -5    0   -3    3    2   -0.000007   -0.000000
   -5    0   -3    1    3   -0.000000    0.000000
   -5    0   -3    2    3   -0.000007    0.000000
   -5    0   -3    3    3    0.000008    0.000000
   -5    0   -2    1    1   -0.000001   -0.000000
   -5    0   -2    2    1    0.000006    0.000000
   -5    0   -2    3    1    0.000002    0.000000
   -5    0   -2    1    2    0.000006    0.000000
   -5    0   -2    2    2   -0.000006    0.000000
   -5    0   -2    3    2   -0.000001    0.000000
   -5    0   -2    1    3    0.000002    0.000000
   -5    0   -2    2    3   -0.000001    0.000000
   -5    0   -2    3    3   -0.000002   -0.000000
   -5    0   -1    1    1   -0.000001    0.000000
   -5    0   -1    2    1    0.000003    0.000000
   -5    0   -1    3    1    0.000000   -0.000000
   -5    0   -1    1    2    0.000003   -0.000000
   -5    0   -1    2    2   -0.000002   -0.000000
   -5    0   -1    3    2    0.000000   -0.000000
   -5    0   -1    1    3    0.000000   -0.000000
   -5    0   -1    2    3    0.000000    0.000000
   -5    0   -1    3    3   -0.000000    0.000000
   -5    0    0    1    1   -0.000001    0.000000
   -5    0    0    2    1    0.000001   -0.000000
   -5    0    0    3    1    0.000001    0.000000
   -5    0    0    1    2    0.000001    0.000000
   -5    0    0    2    2   -0.000001    0.000000
   -5    0    0    3    2   -0.000001    0.000000
   -5    0    0    1    3    0.000001   -0.000000
   -5    0    0    2    3   -0.000001   -0.000000
   -5    0    0    3    3   -0.000001    0.000000
   -5    1   -4    1    1    0.000006   -0.000000
   -5    1   -4    2    1    0.000000   -0.000000
   -5    1   -4    3    1   -0.000000    0.000000
   -5    1   -4    1    2    0.000000   -0.000000
   -5    1   -4    2    2   -0.000387    0.000000
   -5    1   -4    3    2    0.000000   -0.000000
   -5    1   -4    1    3   -0.000000    0.000000
   -5    1   -4    2    3   -0.000000   -0.000000
   -5    1   -4    3    3   -0.001569   -0.000000
   -5    1   -3    1    1   -0.000002    0.000000
   -5    1   -3    2    1   -0.000040   -0.000000
   -5    1   -3    3    1    0.000016    0.000000
   -5    1   -3    1    2   -0.000040    0.000000
   -5    1   -3    2    2    0.000031   -0.000000
   -5    1   -3    3    2   -0.000007   -0.000000
   -5    1   -3    1    3    0.000016    0.000000
   -5    1   -3    2    3   -0.000007   -0.000000
   -5    1   -3    3    3   -0.000026   -0.000000
   -5    1   -2    1    1   -0.000001   -0.000000
   -5    1   -2    2    1   -0.000000    0.000000
   -5    1   -2    3    1    0.000004   -0.000000
   -5    1   -2    1    2   -0.000000   -0.000000
   -5    1   -2    2    2   -0.000010    0.000000
   -5    1   -2    3    2   -0.000009    0.000000
   -5    1   -2    1    3    0.000004    0.000000
   -5    1   -2    2    3   -0.000009    0.000000
   -5    1   -2    3    3   -0.000004   -0.000000
   -5    1   -1    1    1   -0.000003    0.000000
   -5    1   -1    2    1    0.000006   -0.000000
   -5    1   -1    3    1    0.000001   -0.000000
   -5    1   -1    1    2    0.000006   -0.000000
   -5    1   -1    2    2   -0.000007   -0.000000
   -5    1   -1    3    2   -0.000001   -0.000000
   -5    1   -1    1    3    0.000001   -0.000000
   -5    1   -1    2    3   -0.000001   -0.000000
   -5    1   -1    3    3   -0.000004    0.000000
   -5    1    0    1    1   -0.000001    0.000000
   -5    1    0    2    1    0.000002    0.000000
   -5    1    0    3    1    0.000000    0.000000
   -5    1    0    1    2    0.000002   -0.000000
   -5    1    0    2    2   -0.000001   -0.000000
   -5    1    0    3    2   -0.000000   -0.000000
   -5    1    0    1    3    0.000000    0.000000
   -5    1    0    2    3   -0.000000    0.000000
   -5    1    0    3    3   -0.000001    0.000000
   -5    2   -3    1    1    0.000003   -0.000000
   -5    2   -3    2    1   -0.000000    0.000000
   -5    2   -3    3    1   -0.000000    0.000000
   -5    2   -3    1    2    0.000000   -0.000000
   -5    2   -3    2    2   -0.000118    0.000000
   -5    2   -3    3    2    0.000000    0.000000
   -5    2   -3    1    3   -0.000000   -0.000000
   -5    2   -3    2    3    0.000000    0.000000
   -5    2   -3    3    3   -0.001889    0.000000
   -5    2   -2    1    1   -0.000006    0.000000
   -5    2   -2    2    1   -0.000026   -0.000000
   -5    2   -2    3    1    0.000018   -0.000000
   -5    2   -2    1    2   -0.000026    0.000000
   -5    2   -2    2    2   -0.000002   -0.000000
   -5    2   -2    3    2   -0.000023   -0.000000
   -5    2   -2    1    3    0.000018   -0.000000
   -5    2   -2    2    3   -0.000023   -0.000000
   -5    2   -2    3    3   -0.000023   -0.000000
   -5    2   -1    1    1   -0.000002   -0.000000
   -5    2   -1    2    1    0.000002    0.000000
   -5    2   -1    3    1    0.000004    0.000000
   -5    2   -1    1    2    0.000002   -0.000000
   -5    2   -1    2    2   -0.000005    0.000000
   -5    2   -1    3    2   -0.000005   -0.000000
   -5    2   -1    1    3    0.000004    0.000000
   -5    2   -1    2    3   -0.000005   -0.000000
   -5    2   -1    3    3   -0.000018   -0.000000
   -5    2    0    1    1   -0.000004   -0.000000
   -5    2    0    2    1    0.000003   -0.000000
   -5    2    0    3    1    0.000002    0.000000
   -5    2    0    1    2    0.000003   -0.000000
   -5    2    0    2    2   -0.000004    0.000000
   -5    2    0    3    2   -0.000002    0.000000
   -5    2    0    1    3    0.000002   -0.000000
   -5    2    0    2    3   -0.000002   -0.000000
   -5    2    0    3    3   -0.000001    0.000000
   -5    2    1    1    1   -0.000001   -0.000000
   -5    2    1    2    1    0.000001   -0.000000
   -5    2    1    3    1    0.000000   -0.000000
   -5    2    1    1    2    0.000001   -0.000000
   -5    2    1    2    2   -0.000001    0.000000
   -5    2    1    3    2   -0.000001    0.000000
   -5    2    1    1    3    0.000000   -0.000000
   -5    2    1    2    3   -0.000001    0.000000
   -5    2    1    3    3   -0.000001   -0.000000
   -5    3   -2    1    1    0.000009   -0.000000
   -5    3   -2    2    1   -0.000000   -0.000000
   -5    3   -2    3    1   -0.000000    0.000000
   -5    3   -2    1    2    0.000000   -0.000000
   -5    3   -2    2    2    0.000015   -0.000000
   -5    3   -2    3    2    0.000000    0.000000
   -5    3   -2    1    3   -0.000000    0.000000
   -5    3   -2    2    3    0.000000    0.000000
   -5    3   -2    3    3   -0.001842    0.000000
   -5    3   -1    1    1    0.000002    0.000000
   -5    3   -1    2    1   -0.000001   -0.000000
   -5    3   -1    3    1    0.000011   -0.000000
   -5    3   -1    1    2   -0.000001    0.000000
   -5    3   -1    2    2   -0.000002   -0.000000
   -5    3   -1    3    2   -0.000024   -0.000000
   -5    3   -1    1    3    0.000011   -0.000000
   -5    3   -1    2    3   -0.000024   -0.000000
   -5    3   -1    3    3   -0.000030    0.000000
   -5    3    0    1    1   -0.000003   -0.000000
   -5    3    0    2    1    0.000001    0.000000
   -5    3    0    3    1    0.000006    0.000000
   -5    3    0    1    2    0.000001   -0.000000
   -5    3    0    2    2   -0.000003   -0.000000
   -5    3    0    3    2   -0.000006    0.000000
   -5    3    0    1    3    0.000005    0.000000
   -5    3    0    2    3   -0.000005    0.000000
   -5    3    0    3    3   -0.000006    0.000000
   -5    3    1    1    1   -0.000001   -0.000000
   -5    3    1    2    1   -0.000000   -0.000000
   -5    3    1    3    1    0.000001    0.000000
   -5    3    1    1    2   -0.000000   -0.000000
   -5    3    1    2    2   -0.000000    0.000000
   -5    3    1    3    2   -0.000000    0.000000
   -5    3    1    1    3    0.000001    0.000000
   -5    3    1    2    3   -0.000000    0.000000
   -5    3    1    3    3   -0.000001    0.000000
   -5    3    2    1    1   -0.000002   -0.000000
   -5    3    2    2    1    0.000000    0.000000
   -5    3    2    3    1    0.000000   -0.000000
   -5    3    2    1    2   -0.000000   -0.000000
   -5    3    2    2    2   -0.000000   -0.000000
   -5    3    2    3    2    0.000000    0.000000
   -5    3    2    1    3    0.000000    0.000000
   -5    3    2    2    3    0.000000   -0.000000
   -5    3    2    3    3    0.000001   -0.000000
   -5    4   -1    1    1    0.000009   -0.000000
   -5    4   -1    2    1   -0.000000   -0.000000
   -5    4   -1    3    1   -0.000000    0.000000
   -5    4   -1    1    2   -0.000000   -0.000000
   -5    4   -1    2    2    0.000017    0.000000
   -5    4   -1    3    2    0.000000    0.000000
   -5    4   -1    1    3   -0.000000   -0.000000
   -5    4   -1    2    3   -0.000000    0.000000
   -5    4   -1    3    3   -0.001731   -0.000000
   -5    4    0    1    1    0.000000   -0.000000
   -5    4    0    2    1    0.000005   -0.000000
   -5    4    0    3    1    0.000010    0.000000
   -5    4    0    1    2    0.000005    0.000000
   -5    4    0    2    2    0.000000    0.000000
   -5    4    0    3    2   -0.000010   -0.000000
   -5    4    0    1    3    0.000010   -0.000000
   -5    4    0    2    3   -0.000010   -0.000000
   -5    4    0    3    3   -0.000050    0.000000
   -5    4    1    1    1    0.000001    0.000000
   -5    4    1    2    1   -0.000000   -0.000000
   -5    4    1    3    1    0.000002    0.000000
   -5    4    1    1    2   -0.000000   -0.000000
   -5    4    1    2    2    0.000001   -0.000000
   -5    4    1    3    2    0.000000    0.000000
   -5    4    1    1    3    0.000002    0.000000
   -5    4    1    2    3   -0.000000    0.000000
   -5    4    1    3    3    0.000001   -0.000000
   -5    5    0    1    1   -0.000009   -0.000000
   -5    5    0    2    1   -0.000000    0.000000
   -5    5    0    3    1   -0.000000   -0.000000
   -5    5    0    1    2   -0.000000   -0.000000
   -5    5    0    2    2   -0.000009    0.000000
   -5    5    0    3    2   -0.000000    0.000000
   -5    5    0    1    3   -0.000000    0.000000
   -5    5    0    2    3   -0.000000   -0.000000
   -5    5    0    3    3   -0.001639    0.000000
   -4   -7   -7    1    1   -0.000000    0.000000
   -4   -7   -7    2    1   -0.000000    0.000000
   -4   -7   -7    3    1   -0.000001   -0.000000
   -4   -7   -7    1    2   -0.000000    0.000000
   -4   -7   -7    2    2    0.000000   -0.000000
   -4   -7   -7    3    2    0.000000    0.000000
   -4   -7   -7    1    3   -0.000001   -0.000000
   -4   -7   -7    2    3   -0.000000   -0.000000
   -4   -7   -7    3    3   -0.000001   -0.000000
   -4   -6   -8    1    1   -0.000001    0.000000
   -4   -6   -8    2    1   -0.000000    0.000000
   -4   -6   -8    3    1    0.000009   -0.000000
   -4   -6   -8    1    2   -0.000000    0.000000
   -4   -6   -8    2    2    0.000000    0.000000
   -4   -6   -8    3    2    0.000000    0.000000
   -4   -6   -8    1    3    0.000009   -0.000000
   -4   -6   -8    2    3   -0.000000    0.000000
   -4   -6   -8    3    3    0.000002   -0.000000
   -4   -6   -7    1    1   -0.000002   -0.000000
   -4   -6   -7    2    1   -0.000001    0.000000
   -4   -6   -7    3    1    0.000002    0.000000
   -4   -6   -7    1    2   -0.000001    0.000000
   -4   -6   -7    2    2   -0.000001    0.000000
   -4   -6   -7    3    2    0.000001   -0.000000
   -4   -6   -7    1    3    0.000002   -0.000000
   -4   -6   -7    2    3    0.000001    0.000000
   -4   -6   -7    3    3   -0.000000    0.000000
   -4   -6   -6    1    1   -0.000002    0.000000
   -4   -6   -6    2    1   -0.000001    0.000000
   -4   -6   -6    3    1    0.000001   -0.000000
   -4   -6   -6    1    2   -0.000001    0.000000
   -4   -6   -6    2    2   -0.000000   -0.000000
   -4   -6   -6    3    2    0.000000    0.000000
   -4   -6   -6    1    3    0.000001   -0.000000
   -4   -6   -6    2    3    0.000000   -0.000000
   -4   -6   -6    3    3    0.000000   -0.000000
   -4   -6   -5    1    1   -0.000000   -0.000000
   -4   -6   -5    2    1   -0.000001    0.000000
   -4   -6   -5    3    1    0.000000   -0.000000
   -4   -6   -5    1    2   -0.000001    0.000000
   -4   -6   -5    2    2   -0.000000    0.000000
   -4   -6   -5    3    2    0.000000    0.000000
   -4   -6   -5    1    3    0.000000   -0.000000
   -4   -6   -5    2    3    0.000000    0.000000
   -4   -6   -5    3    3   -0.000000    0.000000
   -4   -5   -9    1    1    0.000017    0.000000
   -4   -5   -9    2    1    0.000000    0.000000
   -4   -5   -9    3    1   -0.000000   -0.000000
   -4   -5   -9    1    2   -0.000000   -0.000000
   -4   -5   -9    2    2    0.000009   -0.000000
   -4   -5   -9    3    2    0.000000    0.000000
   -4   -5   -9    1    3   -0.000000   -0.000000
   -4   -5   -9    2    3   -0.000000    0.000000
   -4   -5   -9    3    3   -0.001731   -0.000000
   -4   -5   -8    1    1   -0.000002   -0.000000
   -4   -5   -8    2    1    0.000001   -0.000000
   -4   -5   -8    3    1    0.000024    0.000000
   -4   -5   -8    1    2    0.000001    0.000000
   -4   -5   -8    2    2    0.000002    0.000000
   -4   -5   -8    3    2    0.000011   -0.000000
   -4   -5   -8    1    3    0.000024    0.000000
   -4   -5   -8    2    3    0.000011   -0.000000
   -4   -5   -8    3    3   -0.000030    0.000000
   -4   -5   -7    1    1   -0.000005    0.000000
   -4   -5   -7    2    1   -0.000002    0.000000
   -4   -5   -7    3    1    0.000005   -0.000000
   -4   -5   -7    1    2   -0.000002    0.000000
   -4   -5   -7    2    2   -0.000002    0.000000
   -4   -5   -7    3    2    0.000004    0.000000
   -4   -5   -7    1    3    0.000005    0.000000
   -4   -5   -7    2    3    0.000004   -0.000000
   -4   -5   -7    3    3   -0.000018   -0.000000
   -4   -5   -6    1    1   -0.000007    0.000000
   -4   -5   -6    2    1   -0.000006    0.000000
   -4   -5   -6    3    1    0.000001   -0.000000
   -4   -5   -6    1    2   -0.000005    0.000000
   -4   -5   -6    2    2   -0.000003   -0.000000
   -4   -5   -6    3    2    0.000001   -0.000000
   -4   -5   -6    1    3    0.000001   -0.000000
   -4   -5   -6    2    3    0.000001   -0.000000
   -4   -5   -6    3    3   -0.000004    0.000000
   -4   -5   -5    1    1   -0.000002    0.000000
   -4   -5   -5    2    1   -0.000003    0.000000
   -4   -5   -5    3    1   -0.000000   -0.000000
   -4   -5   -5    1    2   -0.000003   -0.000000
   -4   -5   -5    2    2   -0.000001   -0.000000
   -4   -5   -5    3    2    0.000001    0.000000
   -4   -5   -5    1    3   -0.000000   -0.000000
   -4   -5   -5    2    3    0.000000   -0.000000
   -4   -5   -5    3    3   -0.000000   -0.000000
   -4   -5   -4    1    1   -0.000001   -0.000000
   -4   -5   -4    2    1   -0.000001    0.000000
   -4   -5   -4    3    1    0.000000    0.000000
   -4   -5   -4    1    2   -0.000001    0.000000
   -4   -5   -4    2    2   -0.000000    0.000000
   -4   -5   -4    3    2   -0.000000   -0.000000
   -4   -5   -4    1    3    0.000000    0.000000
   -4   -5   -4    2    3   -0.000000    0.000000
   -4   -5   -4    3    3    0.000000    0.000000
   -4   -4  -10    1    1   -0.000002   -0.000000
   -4   -4  -10    2    1    0.000000    0.000000
   -4   -4  -10    3    1   -0.000000   -0.000000
   -4   -4  -10    1    2    0.000000    0.000000
   -4   -4  -10    2    2   -0.000002    0.000000
   -4   -4  -10    3    2   -0.000000   -0.000000
   -4   -4  -10    1    3   -0.000000   -0.000000
   -4   -4  -10    2    3   -0.000000   -0.000000
   -4   -4  -10    3    3   -0.000004   -0.000000
   -4   -4   -9    1    1    0.000000   -0.000000
   -4   -4   -9    2    1   -0.000005    0.000000
   -4   -4   -9    3    1   -0.000010    0.000000
   -4   -4   -9    1    2   -0.000005   -0.000000
   -4   -4   -9    2    2    0.000000    0.000000
   -4   -4   -9    3    2   -0.000010    0.000000
   -4   -4   -9    1    3   -0.000010    0.000000
   -4   -4   -9    2    3   -0.000010    0.000000
   -4   -4   -9    3    3   -0.000050   -0.000000
   -4   -4   -8    1    1   -0.000005    0.000000
   -4   -4   -8    2    1    0.000015    0.000000
   -4   -4   -8    3    1   -0.000000   -0.000000
   -4   -4   -8    1    2    0.000015    0.000000
   -4   -4   -8    2    2   -0.000005   -0.000000
   -4   -4   -8    3    2   -0.000000   -0.000000
   -4   -4   -8    1    3   -0.000000   -0.000000
   -4   -4   -8    2    3   -0.000000   -0.000000
   -4   -4   -8    3    3   -0.001898   -0.000000
   -4   -4   -7    1    1    0.000016   -0.000000
   -4   -4   -7    2    1   -0.000007    0.000000
   -4   -4   -7    3    1    0.000050    0.000000
   -4   -4   -7    1    2   -0.000007    0.000000
   -4   -4   -7    2    2    0.000016    0.000000
   -4   -4   -7    3    2    0.000049    0.000000
   -4   -4   -7    1    3    0.000050   -0.000000
   -4   -4   -7    2    3    0.000050    0.000000
   -4   -4   -7    3    3   -0.000008    0.000000
   -4   -4   -6    1    1   -0.000026    0.000000
   -4   -4   -6    2    1   -0.000017    0.000000
   -4   -4   -6    3    1    0.000008    0.000000
   -4   -4   -6    1    2   -0.000017    0.000000
   -4   -4   -6    2    2   -0.000026   -0.000000
   -4   -4   -6    3    2    0.000008   -0.000000
   -4   -4   -6    1    3    0.000008    0.000000
   -4   -4   -6    2    3    0.000008   -0.000000
   -4   -4   -6    3    3   -0.000044   -0.000000
   -4   -4   -5    1    1   -0.000009   -0.000000
   -4   -4   -5    2    1   -0.000014    0.000000
   -4   -4   -5    3    1    0.000003    0.000000
   -4   -4   -5    1    2   -0.000014    0.000000
   -4   -4   -5    2    2   -0.000009    0.000000
   -4   -4   -5    3    2    0.000003   -0.000000
   -4   -4   -5    1    3    0.000003   -0.000000
   -4   -4   -5    2    3    0.000003    0.000000
   -4   -4   -5    3    3   -0.000006    0.000000
   -4   -4   -4    1    1   -0.000002    0.000000
   -4   -4   -4    2    1   -0.000004    0.000000
   -4   -4   -4    3    1    0.000000   -0.000000
   -4   -4   -4    1    2   -0.000004   -0.000000
   -4   -4   -4    2    2   -0.000002   -0.000000
   -4   -4   -4    3    2    0.000001    0.000000
   -4   -4   -4    1    3    0.000000   -0.000000
   -4   -4   -4    2    3    0.000001   -0.000000
   -4   -4   -4    3    3   -0.000002   -0.000000
   -4   -4   -3    1    1   -0.000001   -0.000000
   -4   -4   -3    2    1   -0.000001   -0.000000
   -4   -4   -3    3    1    0.000001    0.000000
   -4   -4   -3    1    2   -0.000001   -0.000000
   -4   -4   -3    2    2   -0.000001   -0.000000
   -4   -4   -3    3    2    0.000001   -0.000000
   -4   -4   -3    1    3    0.000001   -0.000000
   -4   -4   -3    2    3    0.000001   -0.000000
   -4   -4   -3    3    3   -0.000000    0.000000
   -4   -3   -9    1    1    0.000001   -0.000000
   -4   -3   -9    2    1   -0.000000    0.000000
   -4   -3   -9    3    1   -0.000000   -0.000000
   -4   -3   -9    1    2    0.000000    0.000000
   -4   -3   -9    2    2    0.000001    0.000000
   -4   -3   -9    3    2   -0.000002   -0.000000
   -4   -3   -9    1    3    0.000000    0.000000
   -4   -3   -9    2    3   -0.000002    0.000000
   -4   -3   -9    3    3    0.000001   -0.000000
   -4   -3   -8    1    1    0.000002   -0.000000
   -4   -3   -8    2    1    0.000001    0.000000
   -4   -3   -8    3    1   -0.000011    0.000000
   -4   -3   -8    1    2    0.000001   -0.000000
   -4   -3   -8    2    2   -0.000002    0.000000
   -4   -3   -8    3    2   -0.000024   -0.000000
   -4   -3   -8    1    3   -0.000011    0.000000
   -4   -3   -8    2    3   -0.000024   -0.000000
   -4   -3   -8    3    3   -0.000030    0.000000
   -4   -3   -7    1    1   -0.000008    0.000000
   -4   -3   -7    2    1   -0.000005   -0.000000
   -4   -3   -7    3    1   -0.000000   -0.000000
   -4   -3   -7    1    2   -0.000005   -0.000000
   -4   -3   -7    2    2    0.000035    0.000000
   -4   -3   -7    3    2    0.000000   -0.000000
   -4   -3   -7    1    3   -0.000000   -0.000000
   -4   -3   -7    2    3   -0.000000   -0.000000
   -4   -3   -7    3    3   -0.002230   -0.000000
   -4   -3   -6    1    1    0.000032   -0.000000
   -4   -3   -6    2    1    0.000030    0.000000
   -4   -3   -6    3    1    0.000061    0.000000
   -4   -3   -6    1    2    0.000030   -0.000000
   -4   -3   -6    2    2   -0.000028   -0.000000
   -4   -3   -6    3    2    0.000082    0.000000
   -4   -3   -6    1    3    0.000061   -0.000000
   -4   -3   -6    2    3    0.000082    0.000000
   -4   -3   -6    3    3    0.000005    0.000000
   -4   -3   -5    1    1   -0.000028   -0.000000
   -4   -3   -5    2    1   -0.000045   -0.000000
   -4   -3   -5    3    1    0.000016   -0.000000
   -4   -3   -5    1    2   -0.000045    0.000000
   -4   -3   -5    2    2   -0.000051    0.000000
   -4   -3   -5    3    2    0.000001   -0.000000
   -4   -3   -5    1    3    0.000016    0.000000
   -4   -3   -5    2    3    0.000001   -0.000000
   -4   -3   -5    3    3   -0.000037   -0.000000
   -4   -3   -4    1    1   -0.000003   -0.000000
   -4   -3   -4    2    1   -0.000023   -0.000000
   -4   -3   -4    3    1    0.000005    0.000000
   -4   -3   -4    1    2   -0.000023    0.000000
   -4   -3   -4    2    2   -0.000018   -0.000000
   -4   -3   -4    3    2   -0.000000   -0.000000
   -4   -3   -4    1    3    0.000005   -0.000000
   -4   -3   -4    2    3   -0.000000    0.000000
   -4   -3   -4    3    3   -0.000004    0.000000
   -4   -3   -3    1    1   -0.000001   -0.000000
   -4   -3   -3    2    1   -0.000003    0.000000
   -4   -3   -3    3    1    0.000002   -0.000000
   -4   -3   -3    1    2   -0.000003   -0.000000
   -4   -3   -3    2    2   -0.000005    0.000000
   -4   -3   -3    3    2    0.000000    0.000000
   -4   -3   -3    1    3    0.000002    0.000000
   -4   -3   -3    2    3    0.000000    0.000000
   -4   -3   -3    3    3    0.000000   -0.000000
   -4   -3   -2    1    1   -0.000000   -0.000000
   -4   -3   -2    2    1   -0.000000   -0.000000
   -4   -3   -2    3    1    0.000000    0.000000
   -4   -3   -2    1    2   -0.000000    0.000000
   -4   -3   -2    2    2   -0.000001   -0.000000
   -4   -3   -2    3    2    0.000000    0.000000
   -4   -3   -2    1    3    0.000000    0.000000
   -4   -3   -2    2    3    0.000000   -0.000000
   -4   -3   -2    3    3    0.000000    0.000000
   -4   -2   -8    1    1    0.000000    0.000000
   -4   -2   -8    2    1    0.000000    0.000000
   -4   -2   -8    3    1   -0.000000    0.000000
   -4   -2   -8    1    2    0.000000   -0.000000
   -4   -2   -8    2    2   -0.000001   -0.000000
   -4   -2   -8    3    2   -0.000009    0.000000
   -4   -2   -8    1    3   -0.000000    0.000000
   -4   -2   -8    2    3   -0.000009    0.000000
   -4   -2   -8    3    3    0.000002    0.000000
   -4   -2   -7    1    1   -0.000006   -0.000000
   -4   -2   -7    2    1    0.000026    0.000000
   -4   -2   -7    3    1   -0.000018    0.000000
   -4   -2   -7    1    2    0.000026   -0.000000
   -4   -2   -7    2    2   -0.000002    0.000000
   -4   -2   -7    3    2   -0.000023    0.000000
   -4   -2   -7    1    3   -0.000018    0.000000
   -4   -2   -7    2    3   -0.000023   -0.000000
   -4   -2   -7    3    3   -0.000023    0.000000
   -4   -2   -6    1    1    0.000008    0.000000
   -4   -2   -6    2    1   -0.000084    0.000000
   -4   -2   -6    3    1   -0.000000   -0.000000
   -4   -2   -6    1    2   -0.000084   -0.000000
   -4   -2   -6    2    2    0.000062    0.000000
   -4   -2   -6    3    2    0.000000    0.000000
   -4   -2   -6    1    3   -0.000000   -0.000000
   -4   -2   -6    2    3    0.000000    0.000000
   -4   -2   -6    3    3   -0.002498   -0.000000
   -4   -2   -5    1    1   -0.000017   -0.000000
   -4   -2   -5    2    1    0.000125   -0.000000
   -4   -2   -5    3    1    0.000086    0.000000
   -4   -2   -5    1    2    0.000125   -0.000000
   -4   -2   -5    2    2   -0.000032    0.000000
   -4   -2   -5    3    2    0.000056   -0.000000
   -4   -2   -5    1    3    0.000085   -0.000000
   -4   -2   -5    2    3    0.000056   -0.000000
   -4   -2   -5    3    3    0.000029    0.000000
   -4   -2   -4    1    1    0.000017    0.000000
   -4   -2   -4    2    1   -0.000049    0.000000
   -4   -2   -4    3    1    0.000024    0.000000
   -4   -2   -4    1    2   -0.000049    0.000000
   -4   -2   -4    2    2   -0.000035    0.000000
   -4   -2   -4    3    2   -0.000004    0.000000
   -4   -2   -4    1    3    0.000024    0.000000
   -4   -2   -4    2    3   -0.000004    0.000000
   -4   -2   -4    3    3    0.000003   -0.000000
   -4   -2   -3    1    1    0.000006    0.000000
   -4   -2   -3    2    1   -0.000011   -0.000000
   -4   -2   -3    3    1    0.000011   -0.000000
   -4   -2   -3    1    2   -0.000011   -0.000000
   -4   -2   -3    2    2   -0.000031   -0.000000
   -4   -2   -3    3    2    0.000000   -0.000000
   -4   -2   -3    1    3    0.000011   -0.000000
   -4   -2   -3    2    3    0.000000   -0.000000
   -4   -2   -3    3    3    0.000006    0.000000
   -4   -2   -2    1    1    0.000001   -0.000000
   -4   -2   -2    2    1    0.000000   -0.000000
   -4   -2   -2    3    1    0.000004   -0.000000
   -4   -2   -2    1    2    0.000000   -0.000000
   -4   -2   -2    2    2   -0.000005    0.000000
   -4   -2   -2    3    2   -0.000000   -0.000000
   -4   -2   -2    1    3    0.000004   -0.000000
   -4   -2   -2    2    3   -0.000000    0.000000
   -4   -2   -2    3    3    0.000002   -0.000000
   -4   -2   -1    1    1   -0.000000    0.000000
   -4   -2   -1    2    1    0.000001   -0.000000
   -4   -2   -1    3    1    0.000000    0.000000
   -4   -2   -1    1    2    0.000001   -0.000000
   -4   -2   -1    2    2   -0.000001   -0.000000
   -4   -2   -1    3    2   -0.000000   -0.000000
   -4   -2   -1    1    3    0.000000    0.000000
   -4   -2   -1    2    3   -0.000000    0.000000
   -4   -2   -1    3    3    0.000000    0.000000
   -4   -1   -7    1    1    0.000003    0.000000
   -4   -1   -7    2    1    0.000000   -0.000000
   -4   -1   -7    3    1   -0.000000    0.000000
   -4   -1   -7    1    2   -0.000000   -0.000000
   -4   -1   -7    2    2    0.000007   -0.000000
   -4   -1   -7    3    2   -0.000008   -0.000000
   -4   -1   -7    1    3    0.000000    0.000000
   -4   -1   -7    2    3   -0.000008    0.000000
   -4   -1   -7    3    3   -0.000005   -0.000000
   -4   -1   -6    1    1   -0.000002   -0.000000
   -4   -1   -6    2    1    0.000040   -0.000000
   -4   -1   -6    3    1   -0.000016    0.000000
   -4   -1   -6    1    2    0.000040   -0.000000
   -4   -1   -6    2    2    0.000031    0.000000
   -4   -1   -6    3    2   -0.000007   -0.000000
   -4   -1   -6    1    3   -0.000016   -0.000000
   -4   -1   -6    2    3   -0.000007   -0.000000
   -4   -1   -6    3    3   -0.000026    0.000000
   -4   -1   -5    1    1    0.000008    0.000000
   -4   -1   -5    2    1   -0.000089   -0.000000
   -4   -1   -5    3    1   -0.000000    0.000000
   -4   -1   -5    1    2   -0.000089   -0.000000
   -4   -1   -5    2    2   -0.000437   -0.000000
   -4   -1   -5    3    2   -0.000000    0.000000
   -4   -1   -5    1    3   -0.000000    0.000000
   -4   -1   -5    2    3   -0.000000    0.000000
   -4   -1   -5    3    3   -0.002097    0.000000
   -4   -1   -4    1    1   -0.000029   -0.000000
   -4   -1   -4    2    1    0.000092   -0.000000
   -4   -1   -4    3    1    0.000045   -0.000000
   -4   -1   -4    1    2    0.000092   -0.000000
   -4   -1   -4    2    2    0.000492   -0.000000
   -4   -1   -4    3    2    0.000022   -0.000000
   -4   -1   -4    1    3    0.000045   -0.000000
   -4   -1   -4    2    3    0.000022   -0.000000
   -4   -1   -4    3    3   -0.000234    0.000000
   -4   -1   -3    1    1    0.000047   -0.000000
   -4   -1   -3    2    1   -0.000000    0.000000
   -4   -1   -3    3    1    0.000035    0.000000
   -4   -1   -3    1    2    0.000000   -0.000000
   -4   -1   -3    2    2   -0.000126    0.000000
   -4   -1   -3    3    2    0.000000    0.000000
   -4   -1   -3    1    3    0.000035    0.000000
   -4   -1   -3    2    3    0.000000    0.000000
   -4   -1   -3    3    3    0.000082    0.000000
   -4   -1   -2    1    1    0.000006   -0.000000
   -4   -1   -2    2    1    0.000011   -0.000000
   -4   -1   -2    3    1    0.000011    0.000000
   -4   -1   -2    1    2    0.000011    0.000000
   -4   -1   -2    2    2   -0.000031    0.000000
   -4   -1   -2    3    2   -0.000000    0.000000
   -4   -1   -2    1    3    0.000011    0.000000
   -4   -1   -2    2    3   -0.000000   -0.000000
   -4   -1   -2    3    3    0.000006   -0.000000
   -4   -1   -1    1    1   -0.000001   -0.000000
   -4   -1   -1    2    1    0.000003    0.000000
   -4   -1   -1    3    1    0.000002   -0.000000
   -4   -1   -1    1    2    0.000003   -0.000000
   -4   -1   -1    2    2   -0.000005    0.000000
   -4   -1   -1    3    2   -0.000000    0.000000
   -4   -1   -1    1    3    0.000002    0.000000
   -4   -1   -1    2    3   -0.000000    0.000000
   -4   -1   -1    3    3    0.000000    0.000000
   -4   -1    0    1    1   -0.000001   -0.000000
   -4   -1    0    2    1    0.000001   -0.000000
   -4   -1    0    3    1    0.000001    0.000000
   -4   -1    0    1    2    0.000001   -0.000000
   -4   -1    0    2    2   -0.000001    0.000000
   -4   -1    0    3    2   -0.000001    0.000000
   -4   -1    0    1    3    0.000001    0.000000
   -4   -1    0    2    3   -0.000001   -0.000000
   -4   -1    0    3    3   -0.000000    0.000000
   -4    0   -6    1    1   -0.000006    0.000000
   -4    0   -6    2    1   -0.000000    0.000000
   -4    0   -6    3    1    0.000000    0.000000
   -4    0   -6    1    2   -0.000000   -0.000000
   -4    0   -6    2    2    0.000030    0.000000
   -4    0   -6    3    2   -0.000009    0.000000
   -4    0   -6    1    3    0.000000    0.000000
   -4    0   -6    2    3   -0.000009   -0.000000
   -4    0   -6    3    3    0.000006   -0.000000
   -4    0   -5    1    1    0.000005   -0.000000
   -4    0   -5    2    1    0.000030   -0.000000
   -4    0   -5    3    1   -0.000008    0.000000
   -4    0   -5    1    2    0.000030   -0.000000
   -4    0   -5    2    2    0.000106    0.000000
   -4    0   -5    3    2    0.000012   -0.000000
   -4    0   -5    1    3   -0.000008   -0.000000
   -4    0   -5    2    3    0.000012   -0.000000
   -4    0   -5    3    3   -0.000165    0.000000
   -4    0   -4    1    1    0.000013   -0.000000
   -4    0   -4    2    1    0.000000   -0.000000
   -4    0   -4    3    1   -0.000000    0.000000
   -4    0   -4    1    2   -0.000000   -0.000000
   -4    0   -4    2    2   -0.000808    0.000000
   -4    0   -4    3    2   -0.000000    0.000000
   -4    0   -4    1    3   -0.000000    0.000000
   -4    0   -4    2    3   -0.000000    0.000000
   -4    0   -4    3    3   -0.001444   -0.000000
   -4    0   -3    1    1   -0.000029   -0.000000
   -4    0   -3    2    1   -0.000092   -0.000000
   -4    0   -3    3    1    0.000045    0.000000
   -4    0   -3    1    2   -0.000092   -0.000000
   -4    0   -3    2    2    0.000492    0.000000
   -4    0   -3    3    2   -0.000022   -0.000000
   -4    0   -3    1    3    0.000045   -0.000000
   -4    0   -3    2    3   -0.000022   -0.000000
   -4    0   -3    3    3   -0.000234    0.000000
   -4    0   -2    1    1    0.000017   -0.000000
   -4    0   -2    2    1    0.000049   -0.000000
   -4    0   -2    3    1    0.000024    0.000000
   -4    0   -2    1    2    0.000049   -0.000000
   -4    0   -2    2    2   -0.000035   -0.000000
   -4    0   -2    3    2    0.000004    0.000000
   -4    0   -2    1    3    0.000024    0.000000
   -4    0   -2    2    3    0.000004    0.000000
   -4    0   -2    3    3    0.000003    0.000000
   -4    0   -1    1    1   -0.000003    0.000000
   -4    0   -1    2    1    0.000023   -0.000000
   -4    0   -1    3    1    0.000005   -0.000000
   -4    0   -1    1    2    0.000023   -0.000000
   -4    0   -1    2    2   -0.000018   -0.000000
   -4    0   -1    3    2    0.000000   -0.000000
   -4    0   -1    1    3    0.000005   -0.000000
   -4    0   -1    2    3    0.000000   -0.000000
   -4    0   -1    3    3   -0.000004    0.000000
   -4    0    0    1    1   -0.000002   -0.000000
   -4    0    0    2    1    0.000004    0.000000
   -4    0    0    3    1    0.000000    0.000000
   -4    0    0    1    2    0.000004   -0.000000
   -4    0    0    2    2   -0.000002   -0.000000
   -4    0    0    3    2   -0.000000    0.000000
   -4    0    0    1    3    0.000001    0.000000
   -4    0    0    2    3   -0.000000    0.000000
   -4    0    0    3    3   -0.000002    0.000000
   -4    0    1    1    1   -0.000001   -0.000000
   -4    0    1    2    1    0.000001   -0.000000
   -4    0    1    3    1    0.000000    0.000000
   -4    0    1    1    2    0.000001   -0.000000
   -4    0    1    2    2   -0.000000    0.000000
   -4    0    1    3    2    0.000000    0.000000
   -4    0    1    1    3   -0.000000    0.000000
   -4    0    1    2    3    0.000000   -0.000000
   -4    0    1    3    3    0.000000    0.000000
   -4    1   -5    1    1   -0.000002   -0.000000
   -4    1   -5    2    1   -0.000000    0.000000
   -4    1   -5    3    1   -0.000000    0.000000
   -4    1   -5    1    2    0.000000   -0.000000
   -4    1   -5    2    2    0.000040    0.000000
   -4    1   -5    3    2    0.000000    0.000000
   -4    1   -5    1    3   -0.000000    0.000000
   -4    1   -5    2    3    0.000000    0.000000
   -4    1   -5    3    3    0.000012   -0.000000
   -4    1   -4    1    1    0.000005    0.000000
   -4    1   -4    2    1   -0.000030   -0.000000
   -4    1   -4    3    1   -0.000008    0.000000
   -4    1   -4    1    2   -0.000030   -0.000000
   -4    1   -4    2    2    0.000106   -0.000000
   -4    1   -4    3    2   -0.000012   -0.000000
   -4    1   -4    1    3   -0.000008    0.000000
   -4    1   -4    2    3   -0.000012   -0.000000
   -4    1   -4    3    3   -0.000165    0.000000
   -4    1   -3    1    1    0.000008   -0.000000
   -4    1   -3    2    1    0.000089    0.000000
   -4    1   -3    3    1   -0.000000   -0.000000
   -4    1   -3    1    2    0.000089   -0.000000
   -4    1   -3    2    2   -0.000437    0.000000
   -4    1   -3    3    2    0.000000    0.000000
   -4    1   -3    1    3    0.000000    0.000000
   -4    1   -3    2    3    0.000000   -0.000000
   -4    1   -3    3    3   -0.002097   -0.000000
   -4    1   -2    1    1   -0.000017    0.000000
   -4    1   -2    2    1   -0.000125   -0.000000
   -4    1   -2    3    1    0.000085   -0.000000
   -4    1   -2    1    2   -0.000125    0.000000
   -4    1   -2    2    2   -0.000032   -0.000000
   -4    1   -2    3    2   -0.000056   -0.000000
   -4    1   -2    1    3    0.000085   -0.000000
   -4    1   -2    2    3   -0.000056   -0.000000
   -4    1   -2    3    3    0.000029    0.000000
   -4    1   -1    1    1   -0.000028   -0.000000
   -4    1   -1    2    1    0.000045    0.000000
   -4    1   -1    3    1    0.000016    0.000000
   -4    1   -1    1    2    0.000045    0.000000
   -4    1   -1    2    2   -0.000051    0.000000
   -4    1   -1    3    2   -0.000001   -0.000000
   -4    1   -1    1    3    0.000016    0.000000
   -4    1   -1    2    3   -0.000001    0.000000
   -4    1   -1    3    3   -0.000037   -0.000000
   -4    1    0    1    1   -0.000009   -0.000000
   -4    1    0    2    1    0.000014   -0.000000
   -4    1    0    3    1    0.000003    0.000000
   -4    1    0    1    2    0.000014   -0.000000
   -4    1    0    2    2   -0.000009    0.000000
   -4    1    0    3    2   -0.000003   -0.000000
   -4    1    0    1    3    0.000003   -0.000000
   -4    1    0    2    3   -0.000003   -0.000000
[...]
    6   -2    0    1    3   -0.000000    0.000000
    6   -2    0    2    3    0.000000    0.000000
    6   -2    0    3    3    0.000000    0.000000
    6   -2    1    1    1   -0.000000    0.000000
    6   -2    1    2    1   -0.000000   -0.000000
    6   -2    1    3    1    0.000000   -0.000000
    6   -2    1    1    2    0.000000    0.000000
    6   -2    1    2    2   -0.000001   -0.000000
    6   -2    1    3    2   -0.000001   -0.000000
    6   -2    1    1    3    0.000000   -0.000000
    6   -2    1    2    3   -0.000001    0.000000
    6   -2    1    3    3   -0.000000    0.000000
    6   -2    2    1    1    0.000000    0.000000
    6   -2    2    2    1    0.000000    0.000000
    6   -2    2    3    1   -0.000000    0.000000
    6   -2    2    1    2    0.000000   -0.000000
    6   -2    2    2    2   -0.000001   -0.000000
    6   -2    2    3    2   -0.000009    0.000000
    6   -2    2    1    3   -0.000000    0.000000
    6   -2    2    2    3   -0.000009    0.000000
    6   -2    2    3    3    0.000002    0.000000
    6   -1    1    1    1   -0.000001    0.000000
    6   -1    1    2    1    0.000001   -0.000000
    6   -1    1    3    1    0.000001    0.000000
    6   -1    1    1    2    0.000001   -0.000000
    6   -1    1    2    2   -0.000001   -0.000000
    6   -1    1    3    2   -0.000001   -0.000000
    6   -1    1    1    3    0.000001    0.000000
    6   -1    1    2    3   -0.000001    0.000000
    6   -1    1    3    3   -0.000001   -0.000000
    6   -1    2    1    1   -0.000001   -0.000000
    6   -1    2    2    1    0.000001   -0.000000
    6   -1    2    3    1    0.000001    0.000000
    6   -1    2    1    2    0.000001   -0.000000
    6   -1    2    2    2   -0.000002    0.000000
    6   -1    2    3    2   -0.000002   -0.000000
    6   -1    2    1    3    0.000001   -0.000000
    6   -1    2    2    3   -0.000002   -0.000000
    6   -1    2    3    3   -0.000000    0.000000
    6   -1    3    1    1    0.000003    0.000000
    6   -1    3    2    1    0.000000   -0.000000
    6   -1    3    3    1   -0.000000    0.000000
    6   -1    3    1    2   -0.000000   -0.000000
    6   -1    3    2    2    0.000007   -0.000000
    6   -1    3    3    2   -0.000008   -0.000000
    6   -1    3    1    3    0.000000    0.000000
    6   -1    3    2    3   -0.000008    0.000000
    6   -1    3    3    3   -0.000005   -0.000000
    6    0    2    1    1   -0.000000   -0.000000
    6    0    2    2    1    0.000001   -0.000000
    6    0    2    3    1    0.000000   -0.000000
    6    0    2    1    2    0.000001   -0.000000
    6    0    2    2    2   -0.000002    0.000000
    6    0    2    3    2   -0.000001    0.000000
    6    0    2    1    3    0.000000    0.000000
    6    0    2    2    3   -0.000001    0.000000
    6    0    2    3    3    0.000000   -0.000000
    6    0    3    1    1    0.000001   -0.000000
    6    0    3    2    1    0.000001   -0.000000
    6    0    3    3    1    0.000000   -0.000000
    6    0    3    1    2    0.000001   -0.000000
    6    0    3    2    2    0.000000    0.000000
    6    0    3    3    2   -0.000001   -0.000000
    6    0    3    1    3    0.000000   -0.000000
    6    0    3    2    3   -0.000001   -0.000000
    6    0    3    3    3   -0.000000    0.000000
    6    0    4    1    1   -0.000006    0.000000
    6    0    4    2    1   -0.000000    0.000000
    6    0    4    3    1    0.000000    0.000000
    6    0    4    1    2   -0.000000   -0.000000
    6    0    4    2    2    0.000030    0.000000
    6    0    4    3    2   -0.000009    0.000000
    6    0    4    1    3    0.000000    0.000000
    6    0    4    2    3   -0.000009   -0.000000
    6    0    4    3    3    0.000006   -0.000000
    6    1    2    1    1   -0.000000   -0.000000
    6    1    2    2    1    0.000001   -0.000000
    6    1    2    3    1    0.000000    0.000000
    6    1    2    1    2    0.000001   -0.000000
    6    1    2    2    2   -0.000000   -0.000000
    6    1    2    3    2   -0.000000   -0.000000
    6    1    2    1    3    0.000000    0.000000
    6    1    2    2    3   -0.000000   -0.000000
    6    1    2    3    3   -0.000000    0.000000
    6    1    3    1    1    0.000000   -0.000000
    6    1    3    2    1    0.000001   -0.000000
    6    1    3    3    1   -0.000000    0.000000
    6    1    3    1    2    0.000001    0.000000
    6    1    3    2    2   -0.000001   -0.000000
    6    1    3    3    2    0.000001    0.000000
    6    1    3    1    3   -0.000000    0.000000
    6    1    3    2    3    0.000001    0.000000
    6    1    3    3    3    0.000000   -0.000000
    6    1    4    1    1    0.000000    0.000000
    6    1    4    2    1    0.000000   -0.000000
    6    1    4    3    1    0.000000   -0.000000
    6    1    4    1    2    0.000000   -0.000000
    6    1    4    2    2    0.000004   -0.000000
    6    1    4    3    2   -0.000001   -0.000000
    6    1    4    1    3    0.000000   -0.000000
    6    1    4    2    3   -0.000001   -0.000000
    6    1    4    3    3    0.000001    0.000000
    6    1    5    1    1   -0.000002   -0.000000
    6    1    5    2    1   -0.000000    0.000000
    6    1    5    3    1   -0.000000    0.000000
    6    1    5    1    2    0.000000   -0.000000
    6    1    5    2    2    0.000040    0.000000
    6    1    5    3    2    0.000000    0.000000
    6    1    5    1    3   -0.000000    0.000000
    6    1    5    2    3    0.000000    0.000000
    6    1    5    3    3    0.000012   -0.000000
    6    2    3    1    1   -0.000000   -0.000000
    6    2    3    2    1    0.000000    0.000000
    6    2    3    3    1    0.000000   -0.000000
    6    2    3    1    2    0.000000   -0.000000
    6    2    3    2    2   -0.000000    0.000000
    6    2    3    3    2   -0.000000   -0.000000
    6    2    3    1    3    0.000000    0.000000
    6    2    3    2    3   -0.000000   -0.000000
    6    2    3    3    3    0.000000    0.000000
    6    2    4    1    1    0.000001    0.000000
    6    2    4    2    1   -0.000000   -0.000000
    6    2    4    3    1    0.000001    0.000000
    6    2    4    1    2   -0.000000    0.000000
    6    2    4    2    2   -0.000000    0.000000
    6    2    4    3    2   -0.000000    0.000000
    6    2    4    1    3    0.000001   -0.000000
    6    2    4    2    3   -0.000000    0.000000
    6    2    4    3    3   -0.000000   -0.000000
    6    2    5    1    1    0.000000    0.000000
    6    2    5    2    1   -0.000000    0.000000
    6    2    5    3    1    0.000000   -0.000000
    6    2    5    1    2   -0.000000    0.000000
    6    2    5    2    2    0.000004    0.000000
    6    2    5    3    2    0.000001   -0.000000
    6    2    5    1    3    0.000000   -0.000000
    6    2    5    2    3    0.000001   -0.000000
    6    2    5    3    3    0.000001    0.000000
    6    2    6    1    1   -0.000006   -0.000000
    6    2    6    2    1   -0.000000   -0.000000
    6    2    6    3    1    0.000000    0.000000
    6    2    6    1    2   -0.000000    0.000000
    6    2    6    2    2    0.000030   -0.000000
    6    2    6    3    2    0.000009    0.000000
    6    2    6    1    3    0.000000    0.000000
    6    2    6    2    3    0.000009   -0.000000
    6    2    6    3    3    0.000006   -0.000000
    6    3    4    1    1   -0.000000   -0.000000
    6    3    4    2    1   -0.000000    0.000000
    6    3    4    3    1    0.000000   -0.000000
    6    3    4    1    2   -0.000000   -0.000000
    6    3    4    2    2   -0.000000    0.000000
    6    3    4    3    2    0.000000    0.000000
    6    3    4    1    3    0.000000    0.000000
    6    3    4    2    3    0.000000   -0.000000
    6    3    4    3    3    0.000000    0.000000
    6    3    5    1    1    0.000000    0.000000
    6    3    5    2    1   -0.000001   -0.000000
    6    3    5    3    1   -0.000000    0.000000
    6    3    5    1    2   -0.000001    0.000000
    6    3    5    2    2   -0.000001    0.000000
    6    3    5    3    2   -0.000001    0.000000
    6    3    5    1    3   -0.000000   -0.000000
    6    3    5    2    3   -0.000001    0.000000
    6    3    5    3    3    0.000000   -0.000000
    6    3    6    1    1    0.000001    0.000000
    6    3    6    2    1   -0.000001    0.000000
    6    3    6    3    1    0.000000   -0.000000
    6    3    6    1    2   -0.000001    0.000000
    6    3    6    2    2    0.000000   -0.000000
    6    3    6    3    2    0.000001   -0.000000
    6    3    6    1    3    0.000000   -0.000000
    6    3    6    2    3    0.000001   -0.000000
    6    3    6    3    3   -0.000000    0.000000
    6    3    7    1    1    0.000003   -0.000000
    6    3    7    2    1   -0.000000    0.000000
    6    3    7    3    1   -0.000000    0.000000
    6    3    7    1    2    0.000000    0.000000
    6    3    7    2    2    0.000007    0.000000
    6    3    7    3    2    0.000007    0.000000
    6    3    7    1    3    0.000000    0.000000
    6    3    7    2    3    0.000007    0.000000
    6    3    7    3    3   -0.000005   -0.000000
    6    4    5    1    1   -0.000000   -0.000000
    6    4    5    2    1   -0.000001    0.000000
    6    4    5    3    1    0.000000   -0.000000
    6    4    5    1    2   -0.000001    0.000000
    6    4    5    2    2   -0.000000    0.000000
    6    4    5    3    2    0.000000    0.000000
    6    4    5    1    3    0.000000   -0.000000
    6    4    5    2    3    0.000000    0.000000
    6    4    5    3    3   -0.000000    0.000000
    6    4    6    1    1   -0.000000    0.000000
    6    4    6    2    1   -0.000001   -0.000000
    6    4    6    3    1    0.000000    0.000000
    6    4    6    1    2   -0.000001    0.000000
    6    4    6    2    2   -0.000002   -0.000000
    6    4    6    3    2    0.000001    0.000000
    6    4    6    1    3    0.000000    0.000000
    6    4    6    2    3    0.000001   -0.000000
    6    4    6    3    3    0.000000   -0.000000
    6    4    7    1    1   -0.000001   -0.000000
    6    4    7    2    1   -0.000001    0.000000
    6    4    7    3    1    0.000001   -0.000000
    6    4    7    1    2   -0.000001   -0.000000
    6    4    7    2    2   -0.000002   -0.000000
    6    4    7    3    2    0.000002   -0.000000
    6    4    7    1    3    0.000001   -0.000000
    6    4    7    2    3    0.000002   -0.000000
    6    4    7    3    3   -0.000000    0.000000
    6    4    8    1    1    0.000000    0.000000
    6    4    8    2    1    0.000000    0.000000
    6    4    8    3    1   -0.000000   -0.000000
    6    4    8    1    2    0.000000    0.000000
    6    4    8    2    2   -0.000001    0.000000
    6    4    8    3    2    0.000009    0.000000
    6    4    8    1    3    0.000000   -0.000000
    6    4    8    2    3    0.000009    0.000000
    6    4    8    3    3    0.000002   -0.000000
    6    5    7    1    1   -0.000001    0.000000
    6    5    7    2    1   -0.000001    0.000000
    6    5    7    3    1    0.000000   -0.000000
    6    5    7    1    2   -0.000001    0.000000
    6    5    7    2    2   -0.000001   -0.000000
    6    5    7    3    2    0.000001    0.000000
    6    5    7    1    3    0.000001   -0.000000
    6    5    7    2    3    0.000000   -0.000000
    6    5    7    3    3   -0.000001   -0.000000
    6    5    8    1    1   -0.000000   -0.000000
    6    5    8    2    1   -0.000000   -0.000000
    6    5    8    3    1    0.000000   -0.000000
    6    5    8    1    2    0.000000    0.000000
    6    5    8    2    2   -0.000001    0.000000
    6    5    8    3    2    0.000001    0.000000
    6    5    8    1    3    0.000000   -0.000000
    6    5    8    2    3    0.000001    0.000000
    6    5    8    3    3   -0.000001   -0.000000
    6    5    9    1    1    0.000001    0.000000
    6    5    9    2    1    0.000000    0.000000
    6    5    9    3    1    0.000000   -0.000000
    6    5    9    1    2   -0.000000    0.000000
    6    5    9    2    2    0.000001   -0.000000
    6    5    9    3    2    0.000002   -0.000000
    6    5    9    1    3   -0.000000    0.000000
    6    5    9    2    3    0.000002   -0.000000
    6    5    9    3    3    0.000001    0.000000
    6    6    8    1    1   -0.000001    0.000000
    6    6    8    2    1   -0.000000    0.000000
    6    6    8    3    1   -0.000000   -0.000000
    6    6    8    1    2   -0.000000   -0.000000
    6    6    8    2    2   -0.000001   -0.000000
    6    6    8    3    2   -0.000000   -0.000000
    6    6    8    1    3   -0.000000    0.000000
    6    6    8    2    3   -0.000000    0.000000
    6    6    8    3    3    0.000000   -0.000000
    6    6    9    1    1   -0.000001    0.000000
    6    6    9    2    1   -0.000002   -0.000000
    6    6    9    3    1    0.000001    0.000000
    6    6    9    1    2   -0.000002    0.000000
    6    6    9    2    2   -0.000001   -0.000000
    6    6    9    3    2    0.000001   -0.000000
    6    6    9    1    3    0.000001   -0.000000
    6    6    9    2    3    0.000001   -0.000000
    6    6    9    3    3    0.000002   -0.000000
    6    6   10    1    1   -0.000002   -0.000000
    6    6   10    2    1    0.000000    0.000000
    6    6   10    3    1   -0.000000   -0.000000
    6    6   10    1    2    0.000000    0.000000
    6    6   10    2    2   -0.000002    0.000000
    6    6   10    3    2   -0.000000   -0.000000
    6    6   10    1    3   -0.000000   -0.000000
    6    6   10    2    3   -0.000000   -0.000000
    6    6   10    3    3   -0.000004   -0.000000
    6    7    9    1    1   -0.000001   -0.000000
    6    7    9    2    1    0.000000    0.000000
    6    7    9    3    1    0.000001   -0.000000
    6    7    9    1    2    0.000000   -0.000000
    6    7    9    2    2   -0.000001    0.000000
    6    7    9    3    2    0.000000    0.000000
    6    7    9    1    3    0.000001   -0.000000
    6    7    9    2    3    0.000000    0.000000
    6    7    9    3    3    0.000000    0.000000
    7   -3    0    1    1    0.000000   -0.000000
    7   -3    0    2    1   -0.000000    0.000000
    7   -3    0    3    1    0.000000   -0.000000
    7   -3    0    1    2   -0.000000   -0.000000
    7   -3    0    2    2    0.000000   -0.000000
    7   -3    0    3    2    0.000000    0.000000
    7   -3    0    1    3    0.000000    0.000000
    7   -3    0    2    3    0.000000    0.000000
    7   -3    0    3    3   -0.000000    0.000000
    7   -2    1    1    1   -0.000001   -0.000000
    7   -2    1    2    1   -0.000000   -0.000000
    7   -2    1    3    1    0.000000   -0.000000
    7   -2    1    1    2   -0.000000    0.000000
    7   -2    1    2    2   -0.000001    0.000000
    7   -2    1    3    2   -0.000001    0.000000
    7   -2    1    1    3    0.000000   -0.000000
    7   -2    1    2    3   -0.000001   -0.000000
    7   -2    1    3    3    0.000000   -0.000000
    7   -1    2    1    1   -0.000000    0.000000
    7   -1    2    2    1    0.000000    0.000000
    7   -1    2    3    1    0.000000   -0.000000
    7   -1    2    1    2   -0.000000    0.000000
    7   -1    2    2    2   -0.000002    0.000000
    7   -1    2    3    2   -0.000000    0.000000
    7   -1    2    1    3    0.000000    0.000000
    7   -1    2    2    3   -0.000001   -0.000000
    7   -1    2    3    3    0.000001   -0.000000
    7    0    3    1    1    0.000000    0.000000
    7    0    3    2    1   -0.000000    0.000000
    7    0    3    3    1    0.000000    0.000000
    7    0    3    1    2   -0.000000   -0.000000
    7    0    3    2    2   -0.000000   -0.000000
    7    0    3    3    2    0.000001    0.000000
    7    0    3    1    3    0.000000    0.000000
    7    0    3    2    3    0.000001    0.000000
    7    0    3    3    3   -0.000001   -0.000000
    7    1    4    1    1   -0.000000    0.000000
    7    1    4    2    1   -0.000000    0.000000
    7    1    4    3    1   -0.000000   -0.000000
    7    1    4    1    2   -0.000000    0.000000
    7    1    4    2    2    0.000000    0.000000
    7    1    4    3    2   -0.000002    0.000000
    7    1    4    1    3   -0.000000   -0.000000
    7    1    4    2    3   -0.000002    0.000000
    7    1    4    3    3    0.000000   -0.000000
    7    2    4    1    1   -0.000000    0.000000
    7    2    4    2    1    0.000000    0.000000
    7    2    4    3    1   -0.000000    0.000000
    7    2    4    1    2    0.000000   -0.000000
    7    2    4    2    2   -0.000000   -0.000000
    7    2    4    3    2    0.000000   -0.000000
    7    2    4    1    3   -0.000000    0.000000
    7    2    4    2    3    0.000000   -0.000000
    7    2    4    3    3    0.000000    0.000000
    7    2    5    1    1    0.000001   -0.000000
    7    2    5    2    1    0.000000    0.000000
    7    2    5    3    1    0.000000   -0.000000
    7    2    5    1    2   -0.000000    0.000000
    7    2    5    2    2   -0.000000    0.000000
    7    2    5    3    2    0.000000    0.000000
    7    2    5    1    3   -0.000000   -0.000000
    7    2    5    2    3   -0.000000   -0.000000
    7    2    5    3    3    0.000000   -0.000000
    7    3    5    1    1   -0.000000    0.000000
    7    3    5    2    1   -0.000000    0.000000
    7    3    5    3    1   -0.000000   -0.000000
    7    3    5    1    2   -0.000000    0.000000
    7    3    5    2    2   -0.000000   -0.000000
    7    3    5    3    2   -0.000000    0.000000
    7    3    5    1    3   -0.000000    0.000000
    7    3    5    2    3   -0.000000   -0.000000
    7    3    5    3    3    0.000000    0.000000
    7    3    6    1    1   -0.000000   -0.000000
    7    3    6    2    1    0.000000    0.000000
    7    3    6    3    1   -0.000000   -0.000000
    7    3    6    1    2    0.000000   -0.000000
    7    3    6    2    2    0.000000    0.000000
    7    3    6    3    2    0.000002    0.000000
    7    3    6    1    3   -0.000000   -0.000000
    7    3    6    2    3    0.000001    0.000000
    7    3    6    3    3    0.000000   -0.000000
    7    4    7    1    1    0.000000   -0.000000
    7    4    7    2    1    0.000000    0.000000
    7    4    7    3    1   -0.000000   -0.000000
    7    4    7    1    2    0.000000    0.000000
    7    4    7    2    2   -0.000000    0.000000
    7    4    7    3    2   -0.000001   -0.000000
    7    4    7    1    3   -0.000000   -0.000000
    7    4    7    2    3   -0.000001   -0.000000
    7    4    7    3    3   -0.000001   -0.000000
    7    5    8    1    1   -0.000000    0.000000
    7    5    8    2    1    0.000000    0.000000
    7    5    8    3    1   -0.000000   -0.000000
    7    5    8    1    2   -0.000000    0.000000
    7    5    8    2    2   -0.000001   -0.000000
    7    5    8    3    2    0.000000   -0.000000
    7    5    8    1    3   -0.000000    0.000000
    7    5    8    2    3    0.000000   -0.000000
    7    5    8    3    3    0.000001   -0.000000
    7    6    9    1    1   -0.000001   -0.000000
    7    6    9    2    1    0.000000    0.000000
    7    6    9    3    1   -0.000000   -0.000000
    7    6    9    1    2   -0.000000   -0.000000
    7    6    9    2    2   -0.000001    0.000000
    7    6    9    3    2    0.000001    0.000000
    7    6    9    1    3   -0.000000   -0.000000
    7    6    9    2    3    0.000001    0.000000
    7    6    9    3    3    0.000000    0.000000
    7    7   10    1    1    0.000000   -0.000000
    7    7   10    2    1   -0.000000    0.000000
    7    7   10    3    1    0.000000   -0.000000
    7    7   10    1    2   -0.000000   -0.000000
    7    7   10    2    2    0.000000   -0.000000
    7    7   10    3    2    0.000000    0.000000
    7    7   10    1    3    0.000000    0.000000
    7    7   10    2    3    0.000000    0.000000
    7    7   10    3    3   -0.000000    0.000000
